Program Version,EnergyPlus, Version 9.4.0-998c4b761e, YMD=2020.12.21 16:58
1,5,Environment Title[],Latitude[deg],Longitude[deg],Time Zone[],Elevation[m]
2,8,Day of Simulation[],Month[],Day of Month[],DST Indicator[1=yes 0=no],Hour[],StartMinute[],EndMinute[],DayType
3,5,Cumulative Day of Simulation[],Month[],Day of Month[],DST Indicator[1=yes 0=no],DayType  ! When Daily Report Variables Requested
4,2,Cumulative Days of Simulation[],Month[]  ! When Monthly Report Variables Requested
5,1,Cumulative Days of Simulation[] ! When Run Period Report Variables Requested
6,1,Calendar Year of Simulation[] ! When Annual Report Variables Requested
7,1,THERMAL ZONE 1 189.1-2009 - OFFICE - BREAKROOM - CZ1-3 PEOPLE,People Occupant Count [] !Hourly
8,1,THERMAL ZONE 1 189.1-2009 - OFFICE - BREAKROOM - CZ1-3 PEOPLE,People Radiant Heating Rate [W] !Hourly
9,1,THERMAL ZONE 1 189.1-2009 - OFFICE - BREAKROOM - CZ1-3 PEOPLE,People Latent Gain Energy [J] !Hourly
End of Data Dictionary
1,RUN PERIOD 1,  39.74,-105.18,  -7.00,1829.00
2,1, 1, 1, 1, 1, 0.00,60.00,Wednesday
7,0.0
8,0.0
9,0.0
2,1, 1, 1, 1, 2, 0.00,60.00,Wednesday
7,0.0
8,0.0
9,0.0
2,1, 1, 1, 1, 3, 0.00,60.00,Wednesday
7,0.0
8,0.0
9,0.0
2,1, 1, 1, 1, 4, 0.00,60.00,Wednesday
7,0.0
8,0.0
9,0.0
2,1, 1, 1, 1, 5, 0.00,60.00,Wednesday
7,0.0
8,0.0
9,0.0
2,1, 1, 1, 1, 6, 0.00,60.00,Wednesday
7,4.660638497183293
8,29.362022532254746
9,0.0
2,1, 1, 1, 1, 7, 0.00,60.00,Wednesday
7,9.321276994366587
8,58.72404506450949
9,0.0
2,1, 1, 1, 1, 8, 0.00,60.00,Wednesday
7,18.642553988733174
8,117.44809012901898
9,0.0
2,1, 1, 1, 1, 9, 0.00,60.00,Wednesday
7,18.642553988733174
8,117.44809012901898
9,0.0
2,1, 1, 1, 1,10, 0.00,60.00,Wednesday
7,18.642553988733174
8,117.44809012901898
9,0.0
2,1, 1, 1, 1,11, 0.00,60.00,Wednesday
7,18.642553988733174
8,117.44809012901898
9,0.0
2,1, 1, 1, 1,12, 0.00,60.00,Wednesday
7,18.642553988733174
8,117.44809012901898
9,0.0
2,1, 1, 1, 1,13, 0.00,60.00,Wednesday
7,18.642553988733174
8,117.44809012901898
9,0.0
2,1, 1, 1, 1,14, 0.00,60.00,Wednesday
7,18.642553988733174
8,117.44809012901898
9,0.0
2,1, 1, 1, 1,15, 0.00,60.00,Wednesday
7,18.642553988733174
8,117.44809012901898
9,0.0
2,1, 1, 1, 1,16, 0.00,60.00,Wednesday
7,18.642553988733174
8,117.44809012901898
9,0.0
2,1, 1, 1, 1,17, 0.00,60.00,Wednesday
7,18.642553988733174
8,117.44809012901898
9,0.0
2,1, 1, 1, 1,18, 0.00,60.00,Wednesday
7,18.642553988733174
8,87.24715266727124
9,0.0
2,1, 1, 1, 1,19, 0.00,60.00,Wednesday
7,18.642553988733174
8,87.24715266727124
9,0.0
2,1, 1, 1, 1,20, 0.00,60.00,Wednesday
7,4.660638497183293
8,21.81178816681781
9,0.0
2,1, 1, 1, 1,21, 0.00,60.00,Wednesday
7,4.660638497183293
8,21.81178816681781
9,0.0
2,1, 1, 1, 1,22, 0.00,60.00,Wednesday
7,2.3303192485916517
8,10.905894083408926
9,0.0
2,1, 1, 1, 1,23, 0.00,60.00,Wednesday
7,2.3303192485916517
8,10.905894083408926
9,0.0
2,1, 1, 1, 1,24, 0.00,60.00,Wednesday
7,0.0
8,0.0
9,0.0
2,2, 1, 2, 1, 1, 0.00,60.00,Thursday
7,0.0
8,0.0
9,0.0
2,2, 1, 2, 1, 2, 0.00,60.00,Thursday
7,0.0
8,0.0
9,0.0
2,2, 1, 2, 1, 3, 0.00,60.00,Thursday
7,0.0
8,0.0
9,0.0
2,2, 1, 2, 1, 4, 0.00,60.00,Thursday
7,0.0
8,0.0
9,0.0
2,2, 1, 2, 1, 5, 0.00,60.00,Thursday
7,0.0
8,0.0
9,0.0
2,2, 1, 2, 1, 6, 0.00,60.00,Thursday
7,4.660638497183293
8,29.362022532254746
9,0.0
2,2, 1, 2, 1, 7, 0.00,60.00,Thursday
7,9.321276994366587
8,58.72404506450949
9,0.0
2,2, 1, 2, 1, 8, 0.00,60.00,Thursday
7,18.642553988733174
8,117.44809012901898
9,0.0
2,2, 1, 2, 1, 9, 0.00,60.00,Thursday
7,18.642553988733174
8,117.44809012901898
9,0.0
2,2, 1, 2, 1,10, 0.00,60.00,Thursday
7,18.642553988733174
8,117.44809012901898
9,0.0
2,2, 1, 2, 1,11, 0.00,60.00,Thursday
7,18.642553988733174
8,117.44809012901898
9,0.0
2,2, 1, 2, 1,12, 0.00,60.00,Thursday
7,18.642553988733174
8,117.44809012901898
9,0.0
2,2, 1, 2, 1,13, 0.00,60.00,Thursday
7,18.642553988733174
8,117.44809012901898
9,0.0
2,2, 1, 2, 1,14, 0.00,60.00,Thursday
7,18.642553988733174
8,117.44809012901898
9,0.0
2,2, 1, 2, 1,15, 0.00,60.00,Thursday
7,18.642553988733174
8,117.44809012901898
9,0.0
2,2, 1, 2, 1,16, 0.00,60.00,Thursday
7,18.642553988733174
8,117.44809012901898
9,0.0
2,2, 1, 2, 1,17, 0.00,60.00,Thursday
7,18.642553988733174
8,117.44809012901898
9,0.0
2,2, 1, 2, 1,18, 0.00,60.00,Thursday
7,18.642553988733174
8,87.24715266727124
9,0.0
2,2, 1, 2, 1,19, 0.00,60.00,Thursday
7,18.642553988733174
8,87.24715266727124
9,0.0
2,2, 1, 2, 1,20, 0.00,60.00,Thursday
7,4.660638497183293
8,21.81178816681781
9,0.0
2,2, 1, 2, 1,21, 0.00,60.00,Thursday
7,4.660638497183293
8,21.81178816681781
9,0.0
2,2, 1, 2, 1,22, 0.00,60.00,Thursday
7,2.3303192485916517
8,10.905894083408926
9,0.0
2,2, 1, 2, 1,23, 0.00,60.00,Thursday
7,2.3303192485916517
8,10.905894083408926
9,0.0
2,2, 1, 2, 1,24, 0.00,60.00,Thursday
7,0.0
8,0.0
9,0.0
2,3, 1, 3, 1, 1, 0.00,60.00,Friday
7,0.0
8,0.0
9,0.0
2,3, 1, 3, 1, 2, 0.00,60.00,Friday
7,0.0
8,0.0
9,0.0
2,3, 1, 3, 1, 3, 0.00,60.00,Friday
7,0.0
8,0.0
9,0.0
2,3, 1, 3, 1, 4, 0.00,60.00,Friday
7,0.0
8,0.0
9,0.0
2,3, 1, 3, 1, 5, 0.00,60.00,Friday
7,0.0
8,0.0
9,0.0
2,3, 1, 3, 1, 6, 0.00,60.00,Friday
7,4.660638497183293
8,29.362022532254746
9,0.0
2,3, 1, 3, 1, 7, 0.00,60.00,Friday
7,9.321276994366587
8,58.72404506450949
9,0.0
2,3, 1, 3, 1, 8, 0.00,60.00,Friday
7,18.642553988733174
8,117.44809012901898
9,0.0
2,3, 1, 3, 1, 9, 0.00,60.00,Friday
7,18.642553988733174
8,117.44809012901898
9,0.0
2,3, 1, 3, 1,10, 0.00,60.00,Friday
7,18.642553988733174
8,117.44809012901898
9,0.0
2,3, 1, 3, 1,11, 0.00,60.00,Friday
7,18.642553988733174
8,117.44809012901898
9,0.0
2,3, 1, 3, 1,12, 0.00,60.00,Friday
7,18.642553988733174
8,117.44809012901898
9,0.0
2,3, 1, 3, 1,13, 0.00,60.00,Friday
7,18.642553988733174
8,117.44809012901898
9,0.0
2,3, 1, 3, 1,14, 0.00,60.00,Friday
7,18.642553988733174
8,117.44809012901898
9,0.0
2,3, 1, 3, 1,15, 0.00,60.00,Friday
7,18.642553988733174
8,117.44809012901898
9,0.0
2,3, 1, 3, 1,16, 0.00,60.00,Friday
7,18.642553988733174
8,117.44809012901898
9,0.0
2,3, 1, 3, 1,17, 0.00,60.00,Friday
7,18.642553988733174
8,117.44809012901898
9,0.0
2,3, 1, 3, 1,18, 0.00,60.00,Friday
7,18.642553988733174
8,87.24715266727124
9,0.0
2,3, 1, 3, 1,19, 0.00,60.00,Friday
7,18.642553988733174
8,87.24715266727124
9,0.0
2,3, 1, 3, 1,20, 0.00,60.00,Friday
7,4.660638497183293
8,21.81178816681781
9,0.0
2,3, 1, 3, 1,21, 0.00,60.00,Friday
7,4.660638497183293
8,21.81178816681781
9,0.0
2,3, 1, 3, 1,22, 0.00,60.00,Friday
7,2.3303192485916517
8,10.905894083408926
9,0.0
2,3, 1, 3, 1,23, 0.00,60.00,Friday
7,2.3303192485916517
8,10.905894083408926
9,0.0
2,3, 1, 3, 1,24, 0.00,60.00,Friday
7,0.0
8,0.0
9,0.0
2,4, 1, 4, 1, 1, 0.00,60.00,Saturday
7,0.0
8,0.0
9,0.0
2,4, 1, 4, 1, 2, 0.00,60.00,Saturday
7,0.0
8,0.0
9,0.0
2,4, 1, 4, 1, 3, 0.00,60.00,Saturday
7,0.0
8,0.0
9,0.0
2,4, 1, 4, 1, 4, 0.00,60.00,Saturday
7,0.0
8,0.0
9,0.0
2,4, 1, 4, 1, 5, 0.00,60.00,Saturday
7,0.0
8,0.0
9,0.0
2,4, 1, 4, 1, 6, 0.00,60.00,Saturday
7,4.660638497183293
8,29.362022532254746
9,0.0
2,4, 1, 4, 1, 7, 0.00,60.00,Saturday
7,4.660638497183293
8,29.362022532254746
9,0.0
2,4, 1, 4, 1, 8, 0.00,60.00,Saturday
7,11.651596069335936
8,73.4050552368164
9,0.0
2,4, 1, 4, 1, 9, 0.00,60.00,Saturday
7,11.651596069335936
8,73.4050552368164
9,0.0
2,4, 1, 4, 1,10, 0.00,60.00,Saturday
7,11.651596069335936
8,73.4050552368164
9,0.0
2,4, 1, 4, 1,11, 0.00,60.00,Saturday
7,11.651596069335936
8,73.4050552368164
9,0.0
2,4, 1, 4, 1,12, 0.00,60.00,Saturday
7,11.651596069335936
8,73.4050552368164
9,0.0
2,4, 1, 4, 1,13, 0.00,60.00,Saturday
7,11.651596069335936
8,73.4050552368164
9,0.0
2,4, 1, 4, 1,14, 0.00,60.00,Saturday
7,4.660638497183293
8,29.362022532254746
9,0.0
2,4, 1, 4, 1,15, 0.00,60.00,Saturday
7,4.660638497183293
8,29.362022532254746
9,0.0
2,4, 1, 4, 1,16, 0.00,60.00,Saturday
7,4.660638497183293
8,29.362022532254746
9,0.0
2,4, 1, 4, 1,17, 0.00,60.00,Saturday
7,0.0
8,0.0
9,0.0
2,4, 1, 4, 1,18, 0.00,60.00,Saturday
7,0.0
8,0.0
9,0.0
2,4, 1, 4, 1,19, 0.00,60.00,Saturday
7,0.0
8,0.0
9,0.0
2,4, 1, 4, 1,20, 0.00,60.00,Saturday
7,0.0
8,0.0
9,0.0
2,4, 1, 4, 1,21, 0.00,60.00,Saturday
7,0.0
8,0.0
9,0.0
2,4, 1, 4, 1,22, 0.00,60.00,Saturday
7,0.0
8,0.0
9,0.0
2,4, 1, 4, 1,23, 0.00,60.00,Saturday
7,0.0
8,0.0
9,0.0
2,4, 1, 4, 1,24, 0.00,60.00,Saturday
7,0.0
8,0.0
9,0.0
2,5, 1, 5, 1, 1, 0.00,60.00,Sunday
7,0.0
8,0.0
9,0.0
2,5, 1, 5, 1, 2, 0.00,60.00,Sunday
7,0.0
8,0.0
9,0.0
2,5, 1, 5, 1, 3, 0.00,60.00,Sunday
7,0.0
8,0.0
9,0.0
2,5, 1, 5, 1, 4, 0.00,60.00,Sunday
7,0.0
8,0.0
9,0.0
2,5, 1, 5, 1, 5, 0.00,60.00,Sunday
7,0.0
8,0.0
9,0.0
2,5, 1, 5, 1, 6, 0.00,60.00,Sunday
7,0.0
8,0.0
9,0.0
2,5, 1, 5, 1, 7, 0.00,60.00,Sunday
7,0.0
8,0.0
9,0.0
2,5, 1, 5, 1, 8, 0.00,60.00,Sunday
7,0.0
8,0.0
9,0.0
2,5, 1, 5, 1, 9, 0.00,60.00,Sunday
7,0.0
8,0.0
9,0.0
2,5, 1, 5, 1,10, 0.00,60.00,Sunday
7,0.0
8,0.0
9,0.0
2,5, 1, 5, 1,11, 0.00,60.00,Sunday
7,0.0
8,0.0
9,0.0
2,5, 1, 5, 1,12, 0.00,60.00,Sunday
7,0.0
8,0.0
9,0.0
2,5, 1, 5, 1,13, 0.00,60.00,Sunday
7,0.0
8,0.0
9,0.0
2,5, 1, 5, 1,14, 0.00,60.00,Sunday
7,0.0
8,0.0
9,0.0
2,5, 1, 5, 1,15, 0.00,60.00,Sunday
7,0.0
8,0.0
9,0.0
2,5, 1, 5, 1,16, 0.00,60.00,Sunday
7,0.0
8,0.0
9,0.0
2,5, 1, 5, 1,17, 0.00,60.00,Sunday
7,0.0
8,0.0
9,0.0
2,5, 1, 5, 1,18, 0.00,60.00,Sunday
7,0.0
8,0.0
9,0.0
2,5, 1, 5, 1,19, 0.00,60.00,Sunday
7,0.0
8,0.0
9,0.0
2,5, 1, 5, 1,20, 0.00,60.00,Sunday
7,0.0
8,0.0
9,0.0
2,5, 1, 5, 1,21, 0.00,60.00,Sunday
7,0.0
8,0.0
9,0.0
2,5, 1, 5, 1,22, 0.00,60.00,Sunday
7,0.0
8,0.0
9,0.0
2,5, 1, 5, 1,23, 0.00,60.00,Sunday
7,0.0
8,0.0
9,0.0
2,5, 1, 5, 1,24, 0.00,60.00,Sunday
7,0.0
8,0.0
9,0.0
2,6, 1, 6, 1, 1, 0.00,60.00,Monday
7,0.0
8,0.0
9,0.0
2,6, 1, 6, 1, 2, 0.00,60.00,Monday
7,0.0
8,0.0
9,0.0
2,6, 1, 6, 1, 3, 0.00,60.00,Monday
7,0.0
8,0.0
9,0.0
2,6, 1, 6, 1, 4, 0.00,60.00,Monday
7,0.0
8,0.0
9,0.0
2,6, 1, 6, 1, 5, 0.00,60.00,Monday
7,0.0
8,0.0
9,0.0
2,6, 1, 6, 1, 6, 0.00,60.00,Monday
7,4.660638497183293
8,29.362022532254746
9,0.0
2,6, 1, 6, 1, 7, 0.00,60.00,Monday
7,9.321276994366587
8,58.72404506450949
9,0.0
2,6, 1, 6, 1, 8, 0.00,60.00,Monday
7,18.642553988733174
8,117.44809012901898
9,0.0
2,6, 1, 6, 1, 9, 0.00,60.00,Monday
7,18.642553988733174
8,117.44809012901898
9,0.0
2,6, 1, 6, 1,10, 0.00,60.00,Monday
7,18.642553988733174
8,117.44809012901898
9,0.0
2,6, 1, 6, 1,11, 0.00,60.00,Monday
7,18.642553988733174
8,117.44809012901898
9,0.0
2,6, 1, 6, 1,12, 0.00,60.00,Monday
7,18.642553988733174
8,117.44809012901898
9,0.0
2,6, 1, 6, 1,13, 0.00,60.00,Monday
7,18.642553988733174
8,117.44809012901898
9,0.0
2,6, 1, 6, 1,14, 0.00,60.00,Monday
7,18.642553988733174
8,117.44809012901898
9,0.0
2,6, 1, 6, 1,15, 0.00,60.00,Monday
7,18.642553988733174
8,117.44809012901898
9,0.0
2,6, 1, 6, 1,16, 0.00,60.00,Monday
7,18.642553988733174
8,117.44809012901898
9,0.0
2,6, 1, 6, 1,17, 0.00,60.00,Monday
7,18.642553988733174
8,117.44809012901898
9,0.0
2,6, 1, 6, 1,18, 0.00,60.00,Monday
7,18.642553988733174
8,87.24715266727124
9,0.0
2,6, 1, 6, 1,19, 0.00,60.00,Monday
7,18.642553988733174
8,87.24715266727124
9,0.0
2,6, 1, 6, 1,20, 0.00,60.00,Monday
7,4.660638497183293
8,21.81178816681781
9,0.0
2,6, 1, 6, 1,21, 0.00,60.00,Monday
7,4.660638497183293
8,21.81178816681781
9,0.0
2,6, 1, 6, 1,22, 0.00,60.00,Monday
7,2.3303192485916517
8,10.905894083408926
9,0.0
2,6, 1, 6, 1,23, 0.00,60.00,Monday
7,2.3303192485916517
8,10.905894083408926
9,0.0
2,6, 1, 6, 1,24, 0.00,60.00,Monday
7,0.0
8,0.0
9,0.0
2,7, 1, 7, 1, 1, 0.00,60.00,Tuesday
7,0.0
8,0.0
9,0.0
2,7, 1, 7, 1, 2, 0.00,60.00,Tuesday
7,0.0
8,0.0
9,0.0
2,7, 1, 7, 1, 3, 0.00,60.00,Tuesday
7,0.0
8,0.0
9,0.0
2,7, 1, 7, 1, 4, 0.00,60.00,Tuesday
7,0.0
8,0.0
9,0.0
2,7, 1, 7, 1, 5, 0.00,60.00,Tuesday
7,0.0
8,0.0
9,0.0
2,7, 1, 7, 1, 6, 0.00,60.00,Tuesday
7,4.660638497183293
8,29.362022532254746
9,0.0
2,7, 1, 7, 1, 7, 0.00,60.00,Tuesday
7,9.321276994366587
8,58.72404506450949
9,0.0
2,7, 1, 7, 1, 8, 0.00,60.00,Tuesday
7,18.642553988733174
8,117.44809012901898
9,0.0
2,7, 1, 7, 1, 9, 0.00,60.00,Tuesday
7,18.642553988733174
8,117.44809012901898
9,0.0
2,7, 1, 7, 1,10, 0.00,60.00,Tuesday
7,18.642553988733174
8,117.44809012901898
9,0.0
2,7, 1, 7, 1,11, 0.00,60.00,Tuesday
7,18.642553988733174
8,117.44809012901898
9,0.0
2,7, 1, 7, 1,12, 0.00,60.00,Tuesday
7,18.642553988733174
8,117.44809012901898
9,0.0
2,7, 1, 7, 1,13, 0.00,60.00,Tuesday
7,18.642553988733174
8,117.44809012901898
9,0.0
2,7, 1, 7, 1,14, 0.00,60.00,Tuesday
7,18.642553988733174
8,117.44809012901898
9,0.0
2,7, 1, 7, 1,15, 0.00,60.00,Tuesday
7,18.642553988733174
8,117.44809012901898
9,0.0
2,7, 1, 7, 1,16, 0.00,60.00,Tuesday
7,18.642553988733174
8,117.44809012901898
9,0.0
2,7, 1, 7, 1,17, 0.00,60.00,Tuesday
7,18.642553988733174
8,117.44809012901898
9,0.0
2,7, 1, 7, 1,18, 0.00,60.00,Tuesday
7,18.642553988733174
8,87.24715266727124
9,0.0
2,7, 1, 7, 1,19, 0.00,60.00,Tuesday
7,18.642553988733174
8,87.24715266727124
9,0.0
2,7, 1, 7, 1,20, 0.00,60.00,Tuesday
7,4.660638497183293
8,21.81178816681781
9,0.0
2,7, 1, 7, 1,21, 0.00,60.00,Tuesday
7,4.660638497183293
8,21.81178816681781
9,0.0
2,7, 1, 7, 1,22, 0.00,60.00,Tuesday
7,2.3303192485916517
8,10.905894083408926
9,0.0
2,7, 1, 7, 1,23, 0.00,60.00,Tuesday
7,2.3303192485916517
8,10.905894083408926
9,0.0
2,7, 1, 7, 1,24, 0.00,60.00,Tuesday
7,0.0
8,0.0
9,0.0
2,8, 1, 8, 1, 1, 0.00,60.00,Wednesday
7,0.0
8,0.0
9,0.0
2,8, 1, 8, 1, 2, 0.00,60.00,Wednesday
7,0.0
8,0.0
9,0.0
2,8, 1, 8, 1, 3, 0.00,60.00,Wednesday
7,0.0
8,0.0
9,0.0
2,8, 1, 8, 1, 4, 0.00,60.00,Wednesday
7,0.0
8,0.0
9,0.0
2,8, 1, 8, 1, 5, 0.00,60.00,Wednesday
7,0.0
8,0.0
9,0.0
2,8, 1, 8, 1, 6, 0.00,60.00,Wednesday
7,4.660638497183293
8,29.362022532254746
9,0.0
2,8, 1, 8, 1, 7, 0.00,60.00,Wednesday
7,9.321276994366587
8,58.72404506450949
9,0.0
2,8, 1, 8, 1, 8, 0.00,60.00,Wednesday
7,18.642553988733174
8,117.44809012901898
9,0.0
2,8, 1, 8, 1, 9, 0.00,60.00,Wednesday
7,18.642553988733174
8,117.44809012901898
9,0.0
2,8, 1, 8, 1,10, 0.00,60.00,Wednesday
7,18.642553988733174
8,117.44809012901898
9,0.0
2,8, 1, 8, 1,11, 0.00,60.00,Wednesday
7,18.642553988733174
8,117.44809012901898
9,0.0
2,8, 1, 8, 1,12, 0.00,60.00,Wednesday
7,18.642553988733174
8,117.44809012901898
9,0.0
2,8, 1, 8, 1,13, 0.00,60.00,Wednesday
7,18.642553988733174
8,117.44809012901898
9,0.0
2,8, 1, 8, 1,14, 0.00,60.00,Wednesday
7,18.642553988733174
8,117.44809012901898
9,0.0
2,8, 1, 8, 1,15, 0.00,60.00,Wednesday
7,18.642553988733174
8,117.44809012901898
9,0.0
2,8, 1, 8, 1,16, 0.00,60.00,Wednesday
7,18.642553988733174
8,117.44809012901898
9,0.0
2,8, 1, 8, 1,17, 0.00,60.00,Wednesday
7,18.642553988733174
8,117.44809012901898
9,0.0
2,8, 1, 8, 1,18, 0.00,60.00,Wednesday
7,18.642553988733174
8,87.24715266727124
9,0.0
2,8, 1, 8, 1,19, 0.00,60.00,Wednesday
7,18.642553988733174
8,87.24715266727124
9,0.0
2,8, 1, 8, 1,20, 0.00,60.00,Wednesday
7,4.660638497183293
8,21.81178816681781
9,0.0
2,8, 1, 8, 1,21, 0.00,60.00,Wednesday
7,4.660638497183293
8,21.81178816681781
9,0.0
2,8, 1, 8, 1,22, 0.00,60.00,Wednesday
7,2.3303192485916517
8,10.905894083408926
9,0.0
2,8, 1, 8, 1,23, 0.00,60.00,Wednesday
7,2.3303192485916517
8,10.905894083408926
9,0.0
2,8, 1, 8, 1,24, 0.00,60.00,Wednesday
7,0.0
8,0.0
9,0.0
2,9, 1, 9, 1, 1, 0.00,60.00,Thursday
7,0.0
8,0.0
9,0.0
2,9, 1, 9, 1, 2, 0.00,60.00,Thursday
7,0.0
8,0.0
9,0.0
2,9, 1, 9, 1, 3, 0.00,60.00,Thursday
7,0.0
8,0.0
9,0.0
2,9, 1, 9, 1, 4, 0.00,60.00,Thursday
7,0.0
8,0.0
9,0.0
2,9, 1, 9, 1, 5, 0.00,60.00,Thursday
7,0.0
8,0.0
9,0.0
2,9, 1, 9, 1, 6, 0.00,60.00,Thursday
7,4.660638497183293
8,29.362022532254746
9,0.0
2,9, 1, 9, 1, 7, 0.00,60.00,Thursday
7,9.321276994366587
8,58.72404506450949
9,0.0
2,9, 1, 9, 1, 8, 0.00,60.00,Thursday
7,18.642553988733174
8,117.44809012901898
9,0.0
2,9, 1, 9, 1, 9, 0.00,60.00,Thursday
7,18.642553988733174
8,117.44809012901898
9,0.0
2,9, 1, 9, 1,10, 0.00,60.00,Thursday
7,18.642553988733174
8,117.44809012901898
9,0.0
2,9, 1, 9, 1,11, 0.00,60.00,Thursday
7,18.642553988733174
8,117.44809012901898
9,0.0
2,9, 1, 9, 1,12, 0.00,60.00,Thursday
7,18.642553988733174
8,117.44809012901898
9,0.0
2,9, 1, 9, 1,13, 0.00,60.00,Thursday
7,18.642553988733174
8,117.44809012901898
9,0.0
2,9, 1, 9, 1,14, 0.00,60.00,Thursday
7,18.642553988733174
8,117.44809012901898
9,0.0
2,9, 1, 9, 1,15, 0.00,60.00,Thursday
7,18.642553988733174
8,117.44809012901898
9,0.0
2,9, 1, 9, 1,16, 0.00,60.00,Thursday
7,18.642553988733174
8,117.44809012901898
9,0.0
2,9, 1, 9, 1,17, 0.00,60.00,Thursday
7,18.642553988733174
8,117.44809012901898
9,0.0
2,9, 1, 9, 1,18, 0.00,60.00,Thursday
7,18.642553988733174
8,87.24715266727124
9,0.0
2,9, 1, 9, 1,19, 0.00,60.00,Thursday
7,18.642553988733174
8,87.24715266727124
9,0.0
2,9, 1, 9, 1,20, 0.00,60.00,Thursday
7,4.660638497183293
8,21.81178816681781
9,0.0
2,9, 1, 9, 1,21, 0.00,60.00,Thursday
7,4.660638497183293
8,21.81178816681781
9,0.0
2,9, 1, 9, 1,22, 0.00,60.00,Thursday
7,2.3303192485916517
8,10.905894083408926
9,0.0
2,9, 1, 9, 1,23, 0.00,60.00,Thursday
7,2.3303192485916517
8,10.905894083408926
9,0.0
2,9, 1, 9, 1,24, 0.00,60.00,Thursday
7,0.0
8,0.0
9,0.0
2,10, 1,10, 1, 1, 0.00,60.00,Friday
7,0.0
8,0.0
9,0.0
2,10, 1,10, 1, 2, 0.00,60.00,Friday
7,0.0
8,0.0
9,0.0
2,10, 1,10, 1, 3, 0.00,60.00,Friday
7,0.0
8,0.0
9,0.0
2,10, 1,10, 1, 4, 0.00,60.00,Friday
7,0.0
8,0.0
9,0.0
2,10, 1,10, 1, 5, 0.00,60.00,Friday
7,0.0
8,0.0
9,0.0
2,10, 1,10, 1, 6, 0.00,60.00,Friday
7,4.660638497183293
8,29.362022532254746
9,0.0
2,10, 1,10, 1, 7, 0.00,60.00,Friday
7,9.321276994366587
8,58.72404506450949
9,0.0
2,10, 1,10, 1, 8, 0.00,60.00,Friday
7,18.642553988733174
8,117.44809012901898
9,0.0
2,10, 1,10, 1, 9, 0.00,60.00,Friday
7,18.642553988733174
8,117.44809012901898
9,0.0
2,10, 1,10, 1,10, 0.00,60.00,Friday
7,18.642553988733174
8,117.44809012901898
9,0.0
2,10, 1,10, 1,11, 0.00,60.00,Friday
7,18.642553988733174
8,117.44809012901898
9,0.0
2,10, 1,10, 1,12, 0.00,60.00,Friday
7,18.642553988733174
8,117.44809012901898
9,0.0
2,10, 1,10, 1,13, 0.00,60.00,Friday
7,18.642553988733174
8,117.44809012901898
9,0.0
2,10, 1,10, 1,14, 0.00,60.00,Friday
7,18.642553988733174
8,117.44809012901898
9,0.0
2,10, 1,10, 1,15, 0.00,60.00,Friday
7,18.642553988733174
8,117.44809012901898
9,0.0
2,10, 1,10, 1,16, 0.00,60.00,Friday
7,18.642553988733174
8,117.44809012901898
9,0.0
2,10, 1,10, 1,17, 0.00,60.00,Friday
7,18.642553988733174
8,117.44809012901898
9,0.0
2,10, 1,10, 1,18, 0.00,60.00,Friday
7,18.642553988733174
8,87.24715266727124
9,0.0
2,10, 1,10, 1,19, 0.00,60.00,Friday
7,18.642553988733174
8,87.24715266727124
9,0.0
2,10, 1,10, 1,20, 0.00,60.00,Friday
7,4.660638497183293
8,21.81178816681781
9,0.0
2,10, 1,10, 1,21, 0.00,60.00,Friday
7,4.660638497183293
8,21.81178816681781
9,0.0
2,10, 1,10, 1,22, 0.00,60.00,Friday
7,2.3303192485916517
8,10.905894083408926
9,0.0
2,10, 1,10, 1,23, 0.00,60.00,Friday
7,2.3303192485916517
8,10.905894083408926
9,0.0
2,10, 1,10, 1,24, 0.00,60.00,Friday
7,0.0
8,0.0
9,0.0
2,11, 1,11, 1, 1, 0.00,60.00,Saturday
7,0.0
8,0.0
9,0.0
2,11, 1,11, 1, 2, 0.00,60.00,Saturday
7,0.0
8,0.0
9,0.0
2,11, 1,11, 1, 3, 0.00,60.00,Saturday
7,0.0
8,0.0
9,0.0
2,11, 1,11, 1, 4, 0.00,60.00,Saturday
7,0.0
8,0.0
9,0.0
2,11, 1,11, 1, 5, 0.00,60.00,Saturday
7,0.0
8,0.0
9,0.0
2,11, 1,11, 1, 6, 0.00,60.00,Saturday
7,4.660638497183293
8,29.362022532254746
9,0.0
2,11, 1,11, 1, 7, 0.00,60.00,Saturday
7,4.660638497183293
8,29.362022532254746
9,0.0
2,11, 1,11, 1, 8, 0.00,60.00,Saturday
7,11.651596069335936
8,73.4050552368164
9,0.0
2,11, 1,11, 1, 9, 0.00,60.00,Saturday
7,11.651596069335936
8,73.4050552368164
9,0.0
2,11, 1,11, 1,10, 0.00,60.00,Saturday
7,11.651596069335936
8,73.4050552368164
9,0.0
2,11, 1,11, 1,11, 0.00,60.00,Saturday
7,11.651596069335936
8,73.4050552368164
9,0.0
2,11, 1,11, 1,12, 0.00,60.00,Saturday
7,11.651596069335936
8,73.4050552368164
9,0.0
2,11, 1,11, 1,13, 0.00,60.00,Saturday
7,11.651596069335936
8,73.4050552368164
9,0.0
2,11, 1,11, 1,14, 0.00,60.00,Saturday
7,4.660638497183293
8,29.362022532254746
9,0.0
2,11, 1,11, 1,15, 0.00,60.00,Saturday
7,4.660638497183293
8,29.362022532254746
9,0.0
2,11, 1,11, 1,16, 0.00,60.00,Saturday
7,4.660638497183293
8,29.362022532254746
9,0.0
2,11, 1,11, 1,17, 0.00,60.00,Saturday
7,0.0
8,0.0
9,0.0
2,11, 1,11, 1,18, 0.00,60.00,Saturday
7,0.0
8,0.0
9,0.0
2,11, 1,11, 1,19, 0.00,60.00,Saturday
7,0.0
8,0.0
9,0.0
2,11, 1,11, 1,20, 0.00,60.00,Saturday
7,0.0
8,0.0
9,0.0
2,11, 1,11, 1,21, 0.00,60.00,Saturday
7,0.0
8,0.0
9,0.0
2,11, 1,11, 1,22, 0.00,60.00,Saturday
7,0.0
8,0.0
9,0.0
2,11, 1,11, 1,23, 0.00,60.00,Saturday
7,0.0
8,0.0
9,0.0
2,11, 1,11, 1,24, 0.00,60.00,Saturday
7,0.0
8,0.0
9,0.0
2,12, 1,12, 1, 1, 0.00,60.00,Sunday
7,0.0
8,0.0
9,0.0
2,12, 1,12, 1, 2, 0.00,60.00,Sunday
7,0.0
8,0.0
9,0.0
2,12, 1,12, 1, 3, 0.00,60.00,Sunday
7,0.0
8,0.0
9,0.0
2,12, 1,12, 1, 4, 0.00,60.00,Sunday
7,0.0
8,0.0
9,0.0
2,12, 1,12, 1, 5, 0.00,60.00,Sunday
7,0.0
8,0.0
9,0.0
2,12, 1,12, 1, 6, 0.00,60.00,Sunday
7,0.0
8,0.0
9,0.0
2,12, 1,12, 1, 7, 0.00,60.00,Sunday
7,0.0
8,0.0
9,0.0
2,12, 1,12, 1, 8, 0.00,60.00,Sunday
7,0.0
8,0.0
9,0.0
2,12, 1,12, 1, 9, 0.00,60.00,Sunday
7,0.0
8,0.0
9,0.0
2,12, 1,12, 1,10, 0.00,60.00,Sunday
7,0.0
8,0.0
9,0.0
2,12, 1,12, 1,11, 0.00,60.00,Sunday
7,0.0
8,0.0
9,0.0
2,12, 1,12, 1,12, 0.00,60.00,Sunday
7,0.0
8,0.0
9,0.0
2,12, 1,12, 1,13, 0.00,60.00,Sunday
7,0.0
8,0.0
9,0.0
2,12, 1,12, 1,14, 0.00,60.00,Sunday
7,0.0
8,0.0
9,0.0
2,12, 1,12, 1,15, 0.00,60.00,Sunday
7,0.0
8,0.0
9,0.0
2,12, 1,12, 1,16, 0.00,60.00,Sunday
7,0.0
8,0.0
9,0.0
2,12, 1,12, 1,17, 0.00,60.00,Sunday
7,0.0
8,0.0
9,0.0
2,12, 1,12, 1,18, 0.00,60.00,Sunday
7,0.0
8,0.0
9,0.0
2,12, 1,12, 1,19, 0.00,60.00,Sunday
7,0.0
8,0.0
9,0.0
2,12, 1,12, 1,20, 0.00,60.00,Sunday
7,0.0
8,0.0
9,0.0
2,12, 1,12, 1,21, 0.00,60.00,Sunday
7,0.0
8,0.0
9,0.0
2,12, 1,12, 1,22, 0.00,60.00,Sunday
7,0.0
8,0.0
9,0.0
2,12, 1,12, 1,23, 0.00,60.00,Sunday
7,0.0
8,0.0
9,0.0
2,12, 1,12, 1,24, 0.00,60.00,Sunday
7,0.0
8,0.0
9,0.0
2,13, 1,13, 1, 1, 0.00,60.00,Monday
7,0.0
8,0.0
9,0.0
2,13, 1,13, 1, 2, 0.00,60.00,Monday
7,0.0
8,0.0
9,0.0
2,13, 1,13, 1, 3, 0.00,60.00,Monday
7,0.0
8,0.0
9,0.0
2,13, 1,13, 1, 4, 0.00,60.00,Monday
7,0.0
8,0.0
9,0.0
2,13, 1,13, 1, 5, 0.00,60.00,Monday
7,0.0
8,0.0
9,0.0
2,13, 1,13, 1, 6, 0.00,60.00,Monday
7,4.660638497183293
8,29.362022532254746
9,0.0
2,13, 1,13, 1, 7, 0.00,60.00,Monday
7,9.321276994366587
8,58.72404506450949
9,0.0
2,13, 1,13, 1, 8, 0.00,60.00,Monday
7,18.642553988733174
8,117.44809012901898
9,0.0
2,13, 1,13, 1, 9, 0.00,60.00,Monday
7,18.642553988733174
8,117.44809012901898
9,0.0
2,13, 1,13, 1,10, 0.00,60.00,Monday
7,18.642553988733174
8,117.44809012901898
9,0.0
2,13, 1,13, 1,11, 0.00,60.00,Monday
7,18.642553988733174
8,117.44809012901898
9,0.0
2,13, 1,13, 1,12, 0.00,60.00,Monday
7,18.642553988733174
8,117.44809012901898
9,0.0
2,13, 1,13, 1,13, 0.00,60.00,Monday
7,18.642553988733174
8,117.44809012901898
9,0.0
2,13, 1,13, 1,14, 0.00,60.00,Monday
7,18.642553988733174
8,117.44809012901898
9,0.0
2,13, 1,13, 1,15, 0.00,60.00,Monday
7,18.642553988733174
8,117.44809012901898
9,0.0
2,13, 1,13, 1,16, 0.00,60.00,Monday
7,18.642553988733174
8,117.44809012901898
9,0.0
2,13, 1,13, 1,17, 0.00,60.00,Monday
7,18.642553988733174
8,117.44809012901898
9,0.0
2,13, 1,13, 1,18, 0.00,60.00,Monday
7,18.642553988733174
8,87.24715266727124
9,0.0
2,13, 1,13, 1,19, 0.00,60.00,Monday
7,18.642553988733174
8,87.24715266727124
9,0.0
2,13, 1,13, 1,20, 0.00,60.00,Monday
7,4.660638497183293
8,21.81178816681781
9,0.0
2,13, 1,13, 1,21, 0.00,60.00,Monday
7,4.660638497183293
8,21.81178816681781
9,0.0
2,13, 1,13, 1,22, 0.00,60.00,Monday
7,2.3303192485916517
8,10.905894083408926
9,0.0
2,13, 1,13, 1,23, 0.00,60.00,Monday
7,2.3303192485916517
8,10.905894083408926
9,0.0
2,13, 1,13, 1,24, 0.00,60.00,Monday
7,0.0
8,0.0
9,0.0
2,14, 1,14, 1, 1, 0.00,60.00,Tuesday
7,0.0
8,0.0
9,0.0
2,14, 1,14, 1, 2, 0.00,60.00,Tuesday
7,0.0
8,0.0
9,0.0
2,14, 1,14, 1, 3, 0.00,60.00,Tuesday
7,0.0
8,0.0
9,0.0
2,14, 1,14, 1, 4, 0.00,60.00,Tuesday
7,0.0
8,0.0
9,0.0
2,14, 1,14, 1, 5, 0.00,60.00,Tuesday
7,0.0
8,0.0
9,0.0
2,14, 1,14, 1, 6, 0.00,60.00,Tuesday
7,4.660638497183293
8,29.362022532254746
9,0.0
2,14, 1,14, 1, 7, 0.00,60.00,Tuesday
7,9.321276994366587
8,58.72404506450949
9,0.0
2,14, 1,14, 1, 8, 0.00,60.00,Tuesday
7,18.642553988733174
8,117.44809012901898
9,0.0
2,14, 1,14, 1, 9, 0.00,60.00,Tuesday
7,18.642553988733174
8,117.44809012901898
9,0.0
2,14, 1,14, 1,10, 0.00,60.00,Tuesday
7,18.642553988733174
8,117.44809012901898
9,0.0
2,14, 1,14, 1,11, 0.00,60.00,Tuesday
7,18.642553988733174
8,117.44809012901898
9,0.0
2,14, 1,14, 1,12, 0.00,60.00,Tuesday
7,18.642553988733174
8,117.44809012901898
9,0.0
2,14, 1,14, 1,13, 0.00,60.00,Tuesday
7,18.642553988733174
8,117.44809012901898
9,0.0
2,14, 1,14, 1,14, 0.00,60.00,Tuesday
7,18.642553988733174
8,117.44809012901898
9,0.0
2,14, 1,14, 1,15, 0.00,60.00,Tuesday
7,18.642553988733174
8,117.44809012901898
9,0.0
2,14, 1,14, 1,16, 0.00,60.00,Tuesday
7,18.642553988733174
8,117.44809012901898
9,0.0
2,14, 1,14, 1,17, 0.00,60.00,Tuesday
7,18.642553988733174
8,117.44809012901898
9,0.0
2,14, 1,14, 1,18, 0.00,60.00,Tuesday
7,18.642553988733174
8,87.24715266727124
9,0.0
2,14, 1,14, 1,19, 0.00,60.00,Tuesday
7,18.642553988733174
8,87.24715266727124
9,0.0
2,14, 1,14, 1,20, 0.00,60.00,Tuesday
7,4.660638497183293
8,21.81178816681781
9,0.0
2,14, 1,14, 1,21, 0.00,60.00,Tuesday
7,4.660638497183293
8,21.81178816681781
9,0.0
2,14, 1,14, 1,22, 0.00,60.00,Tuesday
7,2.3303192485916517
8,10.905894083408926
9,0.0
2,14, 1,14, 1,23, 0.00,60.00,Tuesday
7,2.3303192485916517
8,10.905894083408926
9,0.0
2,14, 1,14, 1,24, 0.00,60.00,Tuesday
7,0.0
8,0.0
9,0.0
2,15, 1,15, 1, 1, 0.00,60.00,Wednesday
7,0.0
8,0.0
9,0.0
2,15, 1,15, 1, 2, 0.00,60.00,Wednesday
7,0.0
8,0.0
9,0.0
2,15, 1,15, 1, 3, 0.00,60.00,Wednesday
7,0.0
8,0.0
9,0.0
2,15, 1,15, 1, 4, 0.00,60.00,Wednesday
7,0.0
8,0.0
9,0.0
2,15, 1,15, 1, 5, 0.00,60.00,Wednesday
7,0.0
8,0.0
9,0.0
2,15, 1,15, 1, 6, 0.00,60.00,Wednesday
7,4.660638497183293
8,29.362022532254746
9,0.0
2,15, 1,15, 1, 7, 0.00,60.00,Wednesday
7,9.321276994366587
8,58.72404506450949
9,0.0
2,15, 1,15, 1, 8, 0.00,60.00,Wednesday
7,18.642553988733174
8,117.44809012901898
9,0.0
2,15, 1,15, 1, 9, 0.00,60.00,Wednesday
7,18.642553988733174
8,117.44809012901898
9,0.0
2,15, 1,15, 1,10, 0.00,60.00,Wednesday
7,18.642553988733174
8,117.44809012901898
9,0.0
2,15, 1,15, 1,11, 0.00,60.00,Wednesday
7,18.642553988733174
8,117.44809012901898
9,0.0
2,15, 1,15, 1,12, 0.00,60.00,Wednesday
7,18.642553988733174
8,117.44809012901898
9,0.0
2,15, 1,15, 1,13, 0.00,60.00,Wednesday
7,18.642553988733174
8,117.44809012901898
9,0.0
2,15, 1,15, 1,14, 0.00,60.00,Wednesday
7,18.642553988733174
8,117.44809012901898
9,0.0
2,15, 1,15, 1,15, 0.00,60.00,Wednesday
7,18.642553988733174
8,117.44809012901898
9,0.0
2,15, 1,15, 1,16, 0.00,60.00,Wednesday
7,18.642553988733174
8,117.44809012901898
9,0.0
2,15, 1,15, 1,17, 0.00,60.00,Wednesday
7,18.642553988733174
8,117.44809012901898
9,0.0
2,15, 1,15, 1,18, 0.00,60.00,Wednesday
7,18.642553988733174
8,87.24715266727124
9,0.0
2,15, 1,15, 1,19, 0.00,60.00,Wednesday
7,18.642553988733174
8,87.24715266727124
9,0.0
2,15, 1,15, 1,20, 0.00,60.00,Wednesday
7,4.660638497183293
8,21.81178816681781
9,0.0
2,15, 1,15, 1,21, 0.00,60.00,Wednesday
7,4.660638497183293
8,21.81178816681781
9,0.0
2,15, 1,15, 1,22, 0.00,60.00,Wednesday
7,2.3303192485916517
8,10.905894083408926
9,0.0
2,15, 1,15, 1,23, 0.00,60.00,Wednesday
7,2.3303192485916517
8,10.905894083408926
9,0.0
2,15, 1,15, 1,24, 0.00,60.00,Wednesday
7,0.0
8,0.0
9,0.0
2,16, 1,16, 1, 1, 0.00,60.00,Thursday
7,0.0
8,0.0
9,0.0
2,16, 1,16, 1, 2, 0.00,60.00,Thursday
7,0.0
8,0.0
9,0.0
2,16, 1,16, 1, 3, 0.00,60.00,Thursday
7,0.0
8,0.0
9,0.0
2,16, 1,16, 1, 4, 0.00,60.00,Thursday
7,0.0
8,0.0
9,0.0
2,16, 1,16, 1, 5, 0.00,60.00,Thursday
7,0.0
8,0.0
9,0.0
2,16, 1,16, 1, 6, 0.00,60.00,Thursday
7,4.660638497183293
8,29.362022532254746
9,0.0
2,16, 1,16, 1, 7, 0.00,60.00,Thursday
7,9.321276994366587
8,58.72404506450949
9,0.0
2,16, 1,16, 1, 8, 0.00,60.00,Thursday
7,18.642553988733174
8,117.44809012901898
9,0.0
2,16, 1,16, 1, 9, 0.00,60.00,Thursday
7,18.642553988733174
8,117.44809012901898
9,0.0
2,16, 1,16, 1,10, 0.00,60.00,Thursday
7,18.642553988733174
8,117.44809012901898
9,0.0
2,16, 1,16, 1,11, 0.00,60.00,Thursday
7,18.642553988733174
8,117.44809012901898
9,0.0
2,16, 1,16, 1,12, 0.00,60.00,Thursday
7,18.642553988733174
8,117.44809012901898
9,0.0
2,16, 1,16, 1,13, 0.00,60.00,Thursday
7,18.642553988733174
8,117.44809012901898
9,0.0
2,16, 1,16, 1,14, 0.00,60.00,Thursday
7,18.642553988733174
8,117.44809012901898
9,0.0
2,16, 1,16, 1,15, 0.00,60.00,Thursday
7,18.642553988733174
8,117.44809012901898
9,0.0
2,16, 1,16, 1,16, 0.00,60.00,Thursday
7,18.642553988733174
8,117.44809012901898
9,0.0
2,16, 1,16, 1,17, 0.00,60.00,Thursday
7,18.642553988733174
8,117.44809012901898
9,0.0
2,16, 1,16, 1,18, 0.00,60.00,Thursday
7,18.642553988733174
8,87.24715266727124
9,0.0
2,16, 1,16, 1,19, 0.00,60.00,Thursday
7,18.642553988733174
8,87.24715266727124
9,0.0
2,16, 1,16, 1,20, 0.00,60.00,Thursday
7,4.660638497183293
8,21.81178816681781
9,0.0
2,16, 1,16, 1,21, 0.00,60.00,Thursday
7,4.660638497183293
8,21.81178816681781
9,0.0
2,16, 1,16, 1,22, 0.00,60.00,Thursday
7,2.3303192485916517
8,10.905894083408926
9,0.0
2,16, 1,16, 1,23, 0.00,60.00,Thursday
7,2.3303192485916517
8,10.905894083408926
9,0.0
2,16, 1,16, 1,24, 0.00,60.00,Thursday
7,0.0
8,0.0
9,0.0
2,17, 1,17, 1, 1, 0.00,60.00,Friday
7,0.0
8,0.0
9,0.0
2,17, 1,17, 1, 2, 0.00,60.00,Friday
7,0.0
8,0.0
9,0.0
2,17, 1,17, 1, 3, 0.00,60.00,Friday
7,0.0
8,0.0
9,0.0
2,17, 1,17, 1, 4, 0.00,60.00,Friday
7,0.0
8,0.0
9,0.0
2,17, 1,17, 1, 5, 0.00,60.00,Friday
7,0.0
8,0.0
9,0.0
2,17, 1,17, 1, 6, 0.00,60.00,Friday
7,4.660638497183293
8,29.362022532254746
9,0.0
2,17, 1,17, 1, 7, 0.00,60.00,Friday
7,9.321276994366587
8,58.72404506450949
9,0.0
2,17, 1,17, 1, 8, 0.00,60.00,Friday
7,18.642553988733174
8,117.44809012901898
9,0.0
2,17, 1,17, 1, 9, 0.00,60.00,Friday
7,18.642553988733174
8,117.44809012901898
9,0.0
2,17, 1,17, 1,10, 0.00,60.00,Friday
7,18.642553988733174
8,117.44809012901898
9,0.0
2,17, 1,17, 1,11, 0.00,60.00,Friday
7,18.642553988733174
8,117.44809012901898
9,0.0
2,17, 1,17, 1,12, 0.00,60.00,Friday
7,18.642553988733174
8,117.44809012901898
9,0.0
2,17, 1,17, 1,13, 0.00,60.00,Friday
7,18.642553988733174
8,117.44809012901898
9,0.0