Program Version,EnergyPlus, Version 9.4.0-998c4b761e, YMD=2021.01.27 18:26
1,5,Environment Title[],Latitude[deg],Longitude[deg],Time Zone[],Elevation[m]
2,8,Day of Simulation[],Month[],Day of Month[],DST Indicator[1=yes 0=no],Hour[],StartMinute[],EndMinute[],DayType
3,5,Cumulative Day of Simulation[],Month[],Day of Month[],DST Indicator[1=yes 0=no],DayType  ! When Daily Report Variables Requested
4,2,Cumulative Days of Simulation[],Month[]  ! When Monthly Report Variables Requested
5,1,Cumulative Days of Simulation[] ! When Run Period Report Variables Requested
6,1,Calendar Year of Simulation[] ! When Annual Report Variables Requested
7,1,Environment,Site Outdoor Air Drybulb Temperature [C] !Hourly
118,1,THERMAL ZONE 1 THERMAL ZONE,Zone Air Temperature [C] !Hourly
End of Data Dictionary
1,RUN PERIOD 1,  48.73,   2.40,   1.00,  96.00
2,1, 1, 1, 0, 1, 0.00,60.00,Thursday
7,4.358333333333333
118,12.829041608908235
2,1, 1, 1, 0, 2, 0.00,60.00,Thursday
7,3.716666666666667
118,12.49149562917004
2,1, 1, 1, 0, 3, 0.00,60.00,Thursday
7,4.883333333333334
118,12.593671189958409
2,1, 1, 1, 0, 4, 0.00,60.00,Thursday
7,5.6499999999999999
118,12.695099227889289
2,1, 1, 1, 0, 5, 0.00,60.00,Thursday
7,6.016666666666666
118,12.74515029291206
2,1, 1, 1, 0, 6, 0.00,60.00,Thursday
7,6.216666666666666
118,12.760793785709062
2,1, 1, 1, 0, 7, 0.00,60.00,Thursday
7,6.241666666666667
118,13.316475008628187
2,1, 1, 1, 0, 8, 0.00,60.00,Thursday
7,6.2
118,13.54720154541768
2,1, 1, 1, 0, 9, 0.00,60.00,Thursday
7,6.141666666666667
118,13.618071884010071
2,1, 1, 1, 0,10, 0.00,60.00,Thursday
7,6.1000000000000009
118,13.653213561147157
2,1, 1, 1, 0,11, 0.00,60.00,Thursday
7,6.216666666666666
118,13.680490925834818
2,1, 1, 1, 0,12, 0.00,60.00,Thursday
7,6.416666666666667
118,13.712301140864027
2,1, 1, 1, 0,13, 0.00,60.00,Thursday
7,6.616666666666667
118,13.742007541729868
2,1, 1, 1, 0,14, 0.00,60.00,Thursday
7,6.758333333333333
118,13.779423339804652
2,1, 1, 1, 0,15, 0.00,60.00,Thursday
7,6.858333333333333
118,13.824875009802418
2,1, 1, 1, 0,16, 0.00,60.00,Thursday
7,6.958333333333333
118,13.870615498941613
2,1, 1, 1, 0,17, 0.00,60.00,Thursday
7,7.0
118,13.919426414247937
2,1, 1, 1, 0,18, 0.00,60.00,Thursday
7,6.941666666666666
118,13.963887004797466
2,1, 1, 1, 0,19, 0.00,60.00,Thursday
7,6.8999999999999999
118,13.998553791031898
2,1, 1, 1, 0,20, 0.00,60.00,Thursday
7,6.783333333333334
118,14.018775013159284
2,1, 1, 1, 0,21, 0.00,60.00,Thursday
7,6.583333333333333
118,14.021407748153465
2,1, 1, 1, 0,22, 0.00,60.00,Thursday
7,6.383333333333333
118,14.01334424822719
2,1, 1, 1, 0,23, 0.00,60.00,Thursday
7,6.3
118,13.379183605202434
2,1, 1, 1, 0,24, 0.00,60.00,Thursday
7,6.358333333333333
118,13.118824519285872
2,2, 1, 2, 0, 1, 0.00,60.00,Friday
7,6.3999999999999999
118,13.042962962824396
2,2, 1, 2, 0, 2, 0.00,60.00,Friday
7,6.2250000000000009
118,12.967892592825204
2,2, 1, 2, 0, 3, 0.00,60.00,Friday
7,5.983333333333334
118,12.887197845728608
2,2, 1, 2, 0, 4, 0.00,60.00,Friday
7,5.7250000000000009
118,12.815163558377377
2,2, 1, 2, 0, 5, 0.00,60.00,Friday
7,5.191666666666666
118,12.71451074300135
2,2, 1, 2, 0, 6, 0.00,60.00,Friday
7,4.55
118,12.578034549781093
2,2, 1, 2, 0, 7, 0.00,60.00,Friday
7,3.891666666666666
118,13.195041266105042
2,2, 1, 2, 0, 8, 0.00,60.00,Friday
7,3.4250000000000004
118,13.44873862712977
2,2, 1, 2, 0, 9, 0.00,60.00,Friday
7,3.183333333333333
118,13.501398943553733
2,2, 1, 2, 0,10, 0.00,60.00,Friday
7,2.9250000000000004
118,13.505033957845683
2,2, 1, 2, 0,11, 0.00,60.00,Friday
7,3.033333333333333
118,13.49106199884931
2,2, 1, 2, 0,12, 0.00,60.00,Friday
7,3.4333333333333337
118,13.498806804664419
2,2, 1, 2, 0,13, 0.00,60.00,Friday
7,3.8333333333333337
118,13.496466858919066
2,2, 1, 2, 0,14, 0.00,60.00,Friday
7,4.291666666666667
118,13.496821246229202
2,2, 1, 2, 0,15, 0.00,60.00,Friday
7,4.791666666666667
118,13.516571853835217
2,2, 1, 2, 0,16, 0.00,60.00,Friday
7,4.766666666666667
118,13.532081795862963
2,2, 1, 2, 0,17, 0.00,60.00,Friday
7,4.483333333333333
118,13.530199080730006
2,2, 1, 2, 0,18, 0.00,60.00,Friday
7,4.2250000000000009
118,13.530389379202603
2,2, 1, 2, 0,19, 0.00,60.00,Friday
7,3.983333333333333
118,13.502333774024616
2,2, 1, 2, 0,20, 0.00,60.00,Friday
7,3.608333333333333
118,13.456796331277502
2,2, 1, 2, 0,21, 0.00,60.00,Friday
7,3.108333333333333
118,13.447384274792086
2,2, 1, 2, 0,22, 0.00,60.00,Friday
7,2.6083333333333336
118,13.371280118721942
2,2, 1, 2, 0,23, 0.00,60.00,Friday
7,2.341666666666667
118,12.353299934443135
2,2, 1, 2, 0,24, 0.00,60.00,Friday
7,2.2416666666666669
118,11.969486437722694
2,3, 1, 3, 0, 1, 0.00,60.00,Saturday
7,2.141666666666667
118,11.81384017595586
2,3, 1, 3, 0, 2, 0.00,60.00,Saturday
7,2.0416666666666667
118,11.699223321050307
2,3, 1, 3, 0, 3, 0.00,60.00,Saturday
7,1.9416666666666667
118,11.60464791188337
2,3, 1, 3, 0, 4, 0.00,60.00,Saturday
7,1.8416666666666668
118,11.524285271980175
2,3, 1, 3, 0, 5, 0.00,60.00,Saturday
7,1.8583333333333335
118,11.464465528511085
2,3, 1, 3, 0, 6, 0.00,60.00,Saturday
7,1.9583333333333333
118,11.428678962387254
2,3, 1, 3, 0, 7, 0.00,60.00,Saturday
7,1.825
118,12.10391567802894
2,3, 1, 3, 0, 8, 0.00,60.00,Saturday
7,1.875
118,12.500973811752673
2,3, 1, 3, 0, 9, 0.00,60.00,Saturday
7,2.1166666666666669
118,12.59920217463985
2,3, 1, 3, 0,10, 0.00,60.00,Saturday
7,2.375
118,12.645787109215278
2,3, 1, 3, 0,11, 0.00,60.00,Saturday
7,2.616666666666667
118,12.675066474294333
2,3, 1, 3, 0,12, 0.00,60.00,Saturday
7,2.8166666666666666
118,12.695877937634015
2,3, 1, 3, 0,13, 0.00,60.00,Saturday
7,3.016666666666667
118,12.71672090450194
2,3, 1, 3, 0,14, 0.00,60.00,Saturday
7,3.0416666666666667
118,12.736368037826964
2,3, 1, 3, 0,15, 0.00,60.00,Saturday
7,3.1166666666666669
118,12.75835309743344
2,3, 1, 3, 0,16, 0.00,60.00,Saturday
7,3.375
118,12.796763283693233
2,3, 1, 3, 0,17, 0.00,60.00,Saturday
7,3.5
118,12.836800799847732
2,3, 1, 3, 0,18, 0.00,60.00,Saturday
7,3.5583333333333337
118,12.868502869625259
2,3, 1, 3, 0,19, 0.00,60.00,Saturday
7,3.6
118,12.248397156632932
2,3, 1, 3, 0,20, 0.00,60.00,Saturday
7,3.5416666666666667
118,11.874747646597572
2,3, 1, 3, 0,21, 0.00,60.00,Saturday
7,3.4416666666666666
118,11.769982777944107
2,3, 1, 3, 0,22, 0.00,60.00,Saturday
7,3.341666666666667
118,11.701067627961067
2,3, 1, 3, 0,23, 0.00,60.00,Saturday
7,3.125
118,11.62988369927468
2,3, 1, 3, 0,24, 0.00,60.00,Saturday
7,2.8833333333333335
118,11.553100265064307
2,4, 1, 4, 0, 1, 0.00,60.00,Sunday
7,2.625
118,11.480622142934856
2,4, 1, 4, 0, 2, 0.00,60.00,Sunday
7,2.2083333333333337
118,11.392944694189316
2,4, 1, 4, 0, 3, 0.00,60.00,Sunday
7,1.825
118,11.301006488418606
2,4, 1, 4, 0, 4, 0.00,60.00,Sunday
7,1.5833333333333333
118,11.226199374550343
2,4, 1, 4, 0, 5, 0.00,60.00,Sunday
7,1.3833333333333338
118,11.161828533729434
2,4, 1, 4, 0, 6, 0.00,60.00,Sunday
7,1.1833333333333334
118,11.100440514144389
2,4, 1, 4, 0, 7, 0.00,60.00,Sunday
7,0.9833333333333334
118,11.03837777111927
2,4, 1, 4, 0, 8, 0.00,60.00,Sunday
7,0.9
118,10.985138845796867
2,4, 1, 4, 0, 9, 0.00,60.00,Sunday
7,0.9583333333333334
118,10.954878445925296
2,4, 1, 4, 0,10, 0.00,60.00,Sunday
7,1.175
118,10.95006132935116
2,4, 1, 4, 0,11, 0.00,60.00,Sunday
7,1.6500000000000002
118,10.987281332162164
2,4, 1, 4, 0,12, 0.00,60.00,Sunday
7,2.308333333333333
118,11.071874564010445
2,4, 1, 4, 0,13, 0.00,60.00,Sunday
7,2.9499999999999999
118,11.177187746576898
2,4, 1, 4, 0,14, 0.00,60.00,Sunday
7,3.0833333333333337
118,11.247360918777306
2,4, 1, 4, 0,15, 0.00,60.00,Sunday
7,3.1749999999999995
118,11.286751202031559
2,4, 1, 4, 0,16, 0.00,60.00,Sunday
7,3.475
118,11.364829466986171
2,4, 1, 4, 0,17, 0.00,60.00,Sunday
7,3.483333333333333
118,11.424132393661806
2,4, 1, 4, 0,18, 0.00,60.00,Sunday
7,3.341666666666667
118,11.446032529478316
2,4, 1, 4, 0,19, 0.00,60.00,Sunday
7,3.183333333333333
118,11.457110841101967
2,4, 1, 4, 0,20, 0.00,60.00,Sunday
7,3.0416666666666667
118,11.450674268067092
2,4, 1, 4, 0,21, 0.00,60.00,Sunday
7,3.0
118,11.445771193785549
2,4, 1, 4, 0,22, 0.00,60.00,Sunday
7,2.7666666666666677
118,11.41531960762392
2,4, 1, 4, 0,23, 0.00,60.00,Sunday
7,2.4250000000000004
118,11.343665365093069
2,4, 1, 4, 0,24, 0.00,60.00,Sunday
7,2.125
118,11.271325861892296
2,5, 1, 5, 0, 1, 0.00,60.00,Monday
7,1.825
118,11.19417821394727
2,5, 1, 5, 0, 2, 0.00,60.00,Monday
7,1.7583333333333336
118,11.13673979671164
2,5, 1, 5, 0, 3, 0.00,60.00,Monday
7,1.8
118,11.108052870006773
2,5, 1, 5, 0, 4, 0.00,60.00,Monday
7,1.8583333333333335
118,11.082019721756412
2,5, 1, 5, 0, 5, 0.00,60.00,Monday
7,1.9000000000000002
118,11.06249180353597
2,5, 1, 5, 0, 6, 0.00,60.00,Monday
7,1.9583333333333333
118,11.045143005139531
2,5, 1, 5, 0, 7, 0.00,60.00,Monday
7,2.2916666666666667
118,11.699664703027509
2,5, 1, 5, 0, 8, 0.00,60.00,Monday
7,2.5
118,12.094671337028837
2,5, 1, 5, 0, 9, 0.00,60.00,Monday
7,2.441666666666667
118,12.206701305974422
2,5, 1, 5, 0,10, 0.00,60.00,Monday
7,2.4
118,12.266399018354902
2,5, 1, 5, 0,11, 0.00,60.00,Monday
7,3.158333333333333
118,12.329849421529508
2,5, 1, 5, 0,12, 0.00,60.00,Monday
7,4.458333333333333
118,12.4185873299391
2,5, 1, 5, 0,13, 0.00,60.00,Monday
7,5.758333333333333
118,12.51719750805824
2,5, 1, 5, 0,14, 0.00,60.00,Monday
7,6.125
118,12.590857135548794
2,5, 1, 5, 0,15, 0.00,60.00,Monday
7,6.0
118,12.646055297905209
2,5, 1, 5, 0,16, 0.00,60.00,Monday
7,6.058333333333334
118,12.760387679859756
2,5, 1, 5, 0,17, 0.00,60.00,Monday
7,6.041666666666667
118,12.838919002459188
2,5, 1, 5, 0,18, 0.00,60.00,Monday
7,5.883333333333333
118,12.904017983433967
2,5, 1, 5, 0,19, 0.00,60.00,Monday
7,5.683333333333334
118,12.979901830900455
2,5, 1, 5, 0,20, 0.00,60.00,Monday
7,5.658333333333332
118,13.032491000448678
2,5, 1, 5, 0,21, 0.00,60.00,Monday
7,5.7
118,13.116974011626889
2,5, 1, 5, 0,22, 0.00,60.00,Monday
7,5.758333333333333
118,13.158655320080224
2,5, 1, 5, 0,23, 0.00,60.00,Monday
7,5.916666666666667
118,12.618691272520584
2,5, 1, 5, 0,24, 0.00,60.00,Monday
7,6.058333333333334
118,12.440606895233933
2,6, 1, 6, 0, 1, 0.00,60.00,Tuesday
7,6.216666666666666
118,12.442317463642859
2,6, 1, 6, 0, 2, 0.00,60.00,Tuesday
7,6.241666666666667
118,12.454474660843412
2,6, 1, 6, 0, 3, 0.00,60.00,Tuesday
7,6.2
118,12.456925590968283
2,6, 1, 6, 0, 4, 0.00,60.00,Tuesday
7,6.141666666666667
118,12.458889319899859
2,6, 1, 6, 0, 5, 0.00,60.00,Tuesday
7,6.041666666666667
118,12.450873204417193
2,6, 1, 6, 0, 6, 0.00,60.00,Tuesday
7,6.0
118,12.446658255339634
2,6, 1, 6, 0, 7, 0.00,60.00,Tuesday
7,6.058333333333334
118,12.99280421138121
2,6, 1, 6, 0, 8, 0.00,60.00,Tuesday
7,6.041666666666667
118,13.240250287031737
2,6, 1, 6, 0, 9, 0.00,60.00,Tuesday
7,6.116666666666667
118,13.331312504111807
2,6, 1, 6, 0,10, 0.00,60.00,Tuesday
7,6.375
118,13.394595661604305
2,6, 1, 6, 0,11, 0.00,60.00,Tuesday
7,6.616666666666667
118,13.450118866807193
2,6, 1, 6, 0,12, 0.00,60.00,Tuesday
7,6.875
118,13.505337882424123
2,6, 1, 6, 0,13, 0.00,60.00,Tuesday
7,7.116666666666667
118,13.566654388745017
2,6, 1, 6, 0,14, 0.00,60.00,Tuesday
7,7.2
118,13.631596298045265
2,6, 1, 6, 0,15, 0.00,60.00,Tuesday
7,7.258333333333333
118,13.701443233494312
2,6, 1, 6, 0,16, 0.00,60.00,Tuesday
7,7.3
118,13.77772377689986
2,6, 1, 6, 0,17, 0.00,60.00,Tuesday
7,7.416666666666667
118,13.854483846334914
2,6, 1, 6, 0,18, 0.00,60.00,Tuesday
7,7.558333333333334
118,13.931834876858155
2,6, 1, 6, 0,19, 0.00,60.00,Tuesday
7,7.716666666666666
118,13.996668959705128
2,6, 1, 6, 0,20, 0.00,60.00,Tuesday
7,7.683333333333334
118,14.039643552518868
2,6, 1, 6, 0,21, 0.00,60.00,Tuesday
7,7.425
118,14.052565868906564
2,6, 1, 6, 0,22, 0.00,60.00,Tuesday
7,7.183333333333334
118,14.040313473168716
2,6, 1, 6, 0,23, 0.00,60.00,Tuesday
7,7.333333333333333
118,13.495110949625556
2,6, 1, 6, 0,24, 0.00,60.00,Tuesday
7,7.791666666666667
118,13.34949184442421
2,7, 1, 7, 0, 1, 0.00,60.00,Wednesday
7,8.233333333333333
118,13.357860899336656
2,7, 1, 7, 0, 2, 0.00,60.00,Wednesday
7,8.575000000000001
118,13.387018434834865
2,7, 1, 7, 0, 3, 0.00,60.00,Wednesday
7,8.933333333333332
118,13.448899463033506
2,7, 1, 7, 0, 4, 0.00,60.00,Wednesday
7,9.275
118,13.513684514078364
2,7, 1, 7, 0, 5, 0.00,60.00,Wednesday
7,9.283333333333334
118,13.550665615552186
2,7, 1, 7, 0, 6, 0.00,60.00,Wednesday
7,9.083333333333334
118,13.557672985686033
2,7, 1, 7, 0, 7, 0.00,60.00,Wednesday
7,9.175000000000003
118,13.95569491085547
2,7, 1, 7, 0, 8, 0.00,60.00,Wednesday
7,9.299999999999999
118,14.171670044356598
2,7, 1, 7, 0, 9, 0.00,60.00,Wednesday
7,9.299999999999999
118,14.28369181169755
2,7, 1, 7, 0,10, 0.00,60.00,Wednesday
7,9.299999999999999
118,14.361096634427275
2,7, 1, 7, 0,11, 0.00,60.00,Wednesday
7,9.241666666666668
118,14.435743296538752
2,7, 1, 7, 0,12, 0.00,60.00,Wednesday
7,9.608333333333333
118,14.54368420612043
2,7, 1, 7, 0,13, 0.00,60.00,Wednesday
7,10.366666666666668
118,14.703625642220985
2,7, 1, 7, 0,14, 0.00,60.00,Wednesday
7,10.816666666666669
118,14.87893914721471
2,7, 1, 7, 0,15, 0.00,60.00,Wednesday
7,11.075000000000001
118,15.041212817072334
2,7, 1, 7, 0,16, 0.00,60.00,Wednesday
7,11.316666666666665
118,15.18673969227305
2,7, 1, 7, 0,17, 0.00,60.00,Wednesday
7,11.166666666666666
118,15.285582799235917
2,7, 1, 7, 0,18, 0.00,60.00,Wednesday
7,10.475
118,15.35742174243901
2,7, 1, 7, 0,19, 0.00,60.00,Wednesday
7,9.575000000000001
118,15.412215518546889
2,7, 1, 7, 0,20, 0.00,60.00,Wednesday
7,8.85
118,15.437827469923653
2,7, 1, 7, 0,21, 0.00,60.00,Wednesday
7,8.25
118,15.429263012374895
2,7, 1, 7, 0,22, 0.00,60.00,Wednesday
7,7.766666666666667
118,15.387338556575055
2,7, 1, 7, 0,23, 0.00,60.00,Wednesday
7,7.658333333333334
118,14.669559416098386
2,7, 1, 7, 0,24, 0.00,60.00,Wednesday
7,7.758333333333333
118,14.35522751117761
2,8, 1, 8, 0, 1, 0.00,60.00,Thursday
7,7.858333333333333
118,14.236823545163583
2,8, 1, 8, 0, 2, 0.00,60.00,Thursday
7,8.541666666666666
118,14.215996115044227
2,8, 1, 8, 0, 3, 0.00,60.00,Thursday
7,8.766666666666668
118,14.225956014272543
2,8, 1, 8, 0, 4, 0.00,60.00,Thursday
7,8.424999999999999
118,14.127239500152016
2,8, 1, 8, 0, 5, 0.00,60.00,Thursday
7,8.125
118,14.029494233215715
2,8, 1, 8, 0, 6, 0.00,60.00,Thursday
7,7.825
118,13.93406529948408
2,8, 1, 8, 0, 7, 0.00,60.00,Thursday
7,7.5249999999999999
118,14.432763571783929
2,8, 1, 8, 0, 8, 0.00,60.00,Thursday
7,7.283333333333334
118,14.647756175613785
2,8, 1, 8, 0, 9, 0.00,60.00,Thursday
7,7.083333333333333
118,14.672930546243244
2,8, 1, 8, 0,10, 0.00,60.00,Thursday
7,6.941666666666666
118,14.667006896245726
2,8, 1, 8, 0,11, 0.00,60.00,Thursday
7,7.716666666666669
118,14.67896273278465
2,8, 1, 8, 0,12, 0.00,60.00,Thursday
7,9.058333333333334
118,14.734249658299682
2,8, 1, 8, 0,13, 0.00,60.00,Thursday
7,10.416666666666666
118,14.802917618694665
2,8, 1, 8, 0,14, 0.00,60.00,Thursday
7,12.166666666666666
118,14.907470496849989
2,8, 1, 8, 0,15, 0.00,60.00,Thursday
7,12.591666666666667
118,15.020080136789142
2,8, 1, 8, 0,16, 0.00,60.00,Thursday
7,11.891666666666666
118,15.071396428652547
2,8, 1, 8, 0,17, 0.00,60.00,Thursday
7,11.191666666666669
118,15.110016642340517
2,8, 1, 8, 0,18, 0.00,60.00,Thursday
7,10.491666666666668
118,15.151551588197954
2,8, 1, 8, 0,19, 0.00,60.00,Thursday
7,9.791666666666666
118,15.185410664373072
2,8, 1, 8, 0,20, 0.00,60.00,Thursday
7,9.208333333333334
118,15.196254121066448
2,8, 1, 8, 0,21, 0.00,60.00,Thursday
7,8.708333333333334
118,15.184277579656987
2,8, 1, 8, 0,22, 0.00,60.00,Thursday
7,8.208333333333334
118,15.149128784258722
2,8, 1, 8, 0,23, 0.00,60.00,Thursday
7,7.883333333333333
118,14.467605566570306
2,8, 1, 8, 0,24, 0.00,60.00,Thursday
7,7.625
118,14.129955616119979
2,9, 1, 9, 0, 1, 0.00,60.00,Friday
7,7.383333333333333
118,13.975396583063186
2,9, 1, 9, 0, 2, 0.00,60.00,Friday
7,7.416666666666667
118,13.878196796656767
2,9, 1, 9, 0, 3, 0.00,60.00,Friday
7,7.616666666666667
118,13.834231135836478
2,9, 1, 9, 0, 4, 0.00,60.00,Friday
7,7.816666666666666
118,13.809611722316485
2,9, 1, 9, 0, 5, 0.00,60.00,Friday
7,7.8999999999999999
118,13.78332639291402
2,9, 1, 9, 0, 6, 0.00,60.00,Friday
7,7.958333333333333
118,13.73163728555027
2,9, 1, 9, 0, 7, 0.00,60.00,Friday
7,7.941666666666666
118,14.195913131613802
2,9, 1, 9, 0, 8, 0.00,60.00,Friday
7,8.133333333333333
118,14.399233866194147
2,9, 1, 9, 0, 9, 0.00,60.00,Friday
7,8.591666666666669
118,14.475143240401435
2,9, 1, 9, 0,10, 0.00,60.00,Friday
7,9.033333333333334
118,14.494841550045125
2,9, 1, 9, 0,11, 0.00,60.00,Friday
7,9.083333333333334
118,14.486229253142796
2,9, 1, 9, 0,12, 0.00,60.00,Friday
7,9.116666666666668
118,14.496583987309954
2,9, 1, 9, 0,13, 0.00,60.00,Friday
7,9.316666666666667
118,14.535728748330035
2,9, 1, 9, 0,14, 0.00,60.00,Friday
7,9.575000000000001
118,14.563264730793856
2,9, 1, 9, 0,15, 0.00,60.00,Friday
7,9.875
118,14.628705197173963
2,9, 1, 9, 0,16, 0.00,60.00,Friday
7,10.175000000000003
118,14.68284834387388
2,9, 1, 9, 0,17, 0.00,60.00,Friday
7,10.358333333333335
118,14.736485061008607
2,9, 1, 9, 0,18, 0.00,60.00,Friday
7,10.4
118,14.792130453883793
2,9, 1, 9, 0,19, 0.00,60.00,Friday
7,10.458333333333334
118,14.846763673817023
2,9, 1, 9, 0,20, 0.00,60.00,Friday
7,10.441666666666667
118,14.891280271844729
2,9, 1, 9, 0,21, 0.00,60.00,Friday
7,10.283333333333334
118,14.914232123233527
2,9, 1, 9, 0,22, 0.00,60.00,Friday
7,10.141666666666668
118,14.923859073284428
2,9, 1, 9, 0,23, 0.00,60.00,Friday
7,9.983333333333333
118,14.515310640403106
2,9, 1, 9, 0,24, 0.00,60.00,Friday
7,9.783333333333334
118,14.31434284482132
2,10, 1,10, 0, 1, 0.00,60.00,Saturday
7,9.583333333333334
118,14.230585707213221
2,10, 1,10, 0, 2, 0.00,60.00,Saturday
7,9.5
118,14.174674354012927
2,10, 1,10, 0, 3, 0.00,60.00,Saturday
7,9.441666666666667
118,14.138169515805985
2,10, 1,10, 0, 4, 0.00,60.00,Saturday
7,9.4
118,14.10192199441662
2,10, 1,10, 0, 5, 0.00,60.00,Saturday
7,9.283333333333334
118,14.06346954685507
2,10, 1,10, 0, 6, 0.00,60.00,Saturday
7,9.025
118,14.003462209279049
2,10, 1,10, 0, 7, 0.00,60.00,Saturday
7,8.783333333333334
118,14.39477129485018
2,10, 1,10, 0, 8, 0.00,60.00,Saturday
7,8.758333333333333
118,14.554775201848587
2,10, 1,10, 0, 9, 0.00,60.00,Saturday
7,8.916666666666666
118,14.606036959261147
2,10, 1,10, 0,10, 0.00,60.00,Saturday
7,8.941666666666667
118,14.616218953631135
2,10, 1,10, 0,11, 0.00,60.00,Saturday
7,8.958333333333334
118,14.632252100057983
2,10, 1,10, 0,12, 0.00,60.00,Saturday
7,9.0
118,14.670337775644839
2,10, 1,10, 0,13, 0.00,60.00,Saturday
7,9.058333333333334
118,14.685197822282774
2,10, 1,10, 0,14, 0.00,60.00,Saturday
7,9.041666666666666
118,14.687000611777592
2,10, 1,10, 0,15, 0.00,60.00,Saturday
7,9.0
118,14.700044535246797
2,10, 1,10, 0,16, 0.00,60.00,Saturday
7,9.175000000000003
118,14.717038391770706
2,10, 1,10, 0,17, 0.00,60.00,Saturday
7,9.125
118,14.735190117900006
2,10, 1,10, 0,18, 0.00,60.00,Saturday
7,8.883333333333333
118,14.752118984035894
2,10, 1,10, 0,19, 0.00,60.00,Saturday
7,8.625
118,14.230006908190044
2,10, 1,10, 0,20, 0.00,60.00,Saturday
7,8.441666666666667
118,13.969682364952
2,10, 1,10, 0,21, 0.00,60.00,Saturday
7,8.4
118,13.908288896608364
2,10, 1,10, 0,22, 0.00,60.00,Saturday
7,8.341666666666669
118,13.848976516749444
2,10, 1,10, 0,23, 0.00,60.00,Saturday
7,8.241666666666668
118,13.788068637357489
2,10, 1,10, 0,24, 0.00,60.00,Saturday
7,8.141666666666668
118,13.760322308455493
2,11, 1,11, 0, 1, 0.00,60.00,Sunday
7,8.041666666666666
118,13.71094594601304
2,11, 1,11, 0, 2, 0.00,60.00,Sunday
7,7.941666666666666
118,13.659063259164633
2,11, 1,11, 0, 3, 0.00,60.00,Sunday
7,7.8999999999999999
118,13.640549024959034
2,11, 1,11, 0, 4, 0.00,60.00,Sunday
7,7.841666666666666
118,13.612412573603612
2,11, 1,11, 0, 5, 0.00,60.00,Sunday
7,7.741666666666667
118,13.574568280819536
2,11, 1,11, 0, 6, 0.00,60.00,Sunday
7,7.7
118,13.542405010031738
2,11, 1,11, 0, 7, 0.00,60.00,Sunday
7,7.641666666666667
118,13.513680139714568
2,11, 1,11, 0, 8, 0.00,60.00,Sunday
7,7.25
118,13.44607653960336
2,11, 1,11, 0, 9, 0.00,60.00,Sunday
7,7.116666666666667
118,13.373424859917252
2,11, 1,11, 0,10, 0.00,60.00,Sunday
7,7.316666666666666
118,13.375106191999289
2,11, 1,11, 0,11, 0.00,60.00,Sunday
7,7.516666666666667
118,13.392506734557307
2,11, 1,11, 0,12, 0.00,60.00,Sunday
7,7.716666666666666
118,13.420089303446995
2,11, 1,11, 0,13, 0.00,60.00,Sunday
7,7.916666666666667
118,13.438078623212363
2,11, 1,11, 0,14, 0.00,60.00,Sunday
7,7.941666666666666
118,13.439323024012781
2,11, 1,11, 0,15, 0.00,60.00,Sunday
7,7.783333333333334
118,13.450826863492074
2,11, 1,11, 0,16, 0.00,60.00,Sunday
7,7.641666666666667
118,13.415669887782079
2,11, 1,11, 0,17, 0.00,60.00,Sunday
7,7.7749999999999999
118,13.407370390010442
2,11, 1,11, 0,18, 0.00,60.00,Sunday
7,8.075000000000001
118,13.468481604941529
2,11, 1,11, 0,19, 0.00,60.00,Sunday
7,8.375
118,13.511170404774206
2,11, 1,11, 0,20, 0.00,60.00,Sunday
7,8.616666666666668
118,13.547299804237519
2,11, 1,11, 0,21, 0.00,60.00,Sunday
7,8.816666666666667
118,13.598153442900478
2,11, 1,11, 0,22, 0.00,60.00,Sunday
7,9.016666666666668
118,13.63277378688967
2,11, 1,11, 0,23, 0.00,60.00,Sunday
7,9.100000000000002
118,13.657091538887445
2,11, 1,11, 0,24, 0.00,60.00,Sunday
7,9.158333333333332
118,13.69320183133795
2,12, 1,12, 0, 1, 0.00,60.00,Monday
7,9.200000000000001
118,13.722533844159655
2,12, 1,12, 0, 2, 0.00,60.00,Monday
7,9.141666666666668
118,13.735107807950144
2,12, 1,12, 0, 3, 0.00,60.00,Monday
7,9.041666666666666
118,13.733112891655859
2,12, 1,12, 0, 4, 0.00,60.00,Monday
7,8.066666666666667
118,13.639432478118012
2,12, 1,12, 0, 5, 0.00,60.00,Monday
7,7.166666666666667
118,13.462376884158227
2,12, 1,12, 0, 6, 0.00,60.00,Monday
7,6.883333333333333
118,13.374870642703235
2,12, 1,12, 0, 7, 0.00,60.00,Monday
7,6.683333333333334
118,13.906943603043756
2,12, 1,12, 0, 8, 0.00,60.00,Monday
7,6.25
118,14.12074527257861
2,12, 1,12, 0, 9, 0.00,60.00,Monday
7,6.583333333333333
118,14.16325382092994
2,12, 1,12, 0,10, 0.00,60.00,Monday
7,7.408333333333335
118,14.211297770832183
2,12, 1,12, 0,11, 0.00,60.00,Monday
7,8.225
118,14.257984555117483
2,12, 1,12, 0,12, 0.00,60.00,Monday
7,9.125
118,14.30927817259216
2,12, 1,12, 0,13, 0.00,60.00,Monday
7,10.025
118,14.369306079450844
2,12, 1,12, 0,14, 0.00,60.00,Monday
7,10.341666666666667
118,14.436908203973778
2,12, 1,12, 0,15, 0.00,60.00,Monday
7,10.183333333333334
118,14.499236238492659
2,12, 1,12, 0,16, 0.00,60.00,Monday
7,10.041666666666666
118,14.56716113164616
2,12, 1,12, 0,17, 0.00,60.00,Monday
7,9.708333333333334
118,14.632137688274116
2,12, 1,12, 0,18, 0.00,60.00,Monday
7,9.208333333333334
118,14.680571428688049
2,12, 1,12, 0,19, 0.00,60.00,Monday
7,8.708333333333334
118,14.712407002217715
2,12, 1,12, 0,20, 0.00,60.00,Monday
7,8.208333333333334
118,14.721243529710963
2,12, 1,12, 0,21, 0.00,60.00,Monday
7,8.0
118,14.715408443114314
2,12, 1,12, 0,22, 0.00,60.00,Monday
7,8.0
118,14.705168040469119
2,12, 1,12, 0,23, 0.00,60.00,Monday
7,7.941666666666666
118,14.111419973013805
2,12, 1,12, 0,24, 0.00,60.00,Monday
7,7.841666666666666
118,13.826548458755818
2,13, 1,13, 0, 1, 0.00,60.00,Tuesday
7,7.741666666666667
118,13.717177210476548
2,13, 1,13, 0, 2, 0.00,60.00,Tuesday
7,7.583333333333333
118,13.630047739895334
2,13, 1,13, 0, 3, 0.00,60.00,Tuesday
7,7.325
118,13.540754723602014
2,13, 1,13, 0, 4, 0.00,60.00,Tuesday
7,7.083333333333333
118,13.451463115161433
2,13, 1,13, 0, 5, 0.00,60.00,Tuesday
7,7.116666666666667
118,13.39858805790562
2,13, 1,13, 0, 6, 0.00,60.00,Tuesday
7,7.258333333333333
118,13.384436993574774
2,13, 1,13, 0, 7, 0.00,60.00,Tuesday
7,7.416666666666667
118,13.915619018305963
2,13, 1,13, 0, 8, 0.00,60.00,Tuesday
7,7.325
118,14.136441074989265
2,13, 1,13, 0, 9, 0.00,60.00,Tuesday
7,7.083333333333333
118,14.165869020402795
2,13, 1,13, 0,10, 0.00,60.00,Tuesday
7,7.0
118,14.156593137626736
2,13, 1,13, 0,11, 0.00,60.00,Tuesday
7,7.116666666666667
118,14.1686582063352
2,13, 1,13, 0,12, 0.00,60.00,Tuesday
7,7.258333333333333
118,14.206598847489288
2,13, 1,13, 0,13, 0.00,60.00,Tuesday
7,7.416666666666667
118,14.227260494175928
2,13, 1,13, 0,14, 0.00,60.00,Tuesday
7,7.733333333333334
118,14.25827549789814
2,13, 1,13, 0,15, 0.00,60.00,Tuesday
7,8.075000000000001
118,14.30254860891901
2,13, 1,13, 0,16, 0.00,60.00,Tuesday
7,8.433333333333332
118,14.352571964548119
2,13, 1,13, 0,17, 0.00,60.00,Tuesday
7,8.833333333333334
118,14.409807196437426
2,13, 1,13, 0,18, 0.00,60.00,Tuesday
7,8.416666666666666
118,14.448593589208349
2,13, 1,13, 0,19, 0.00,60.00,Tuesday
7,8.116666666666668
118,14.465944790644853
2,13, 1,13, 0,20, 0.00,60.00,Tuesday
7,7.558333333333333
118,14.475729242804603
2,13, 1,13, 0,21, 0.00,60.00,Tuesday
7,6.458333333333333
118,14.433448503242206
2,13, 1,13, 0,22, 0.00,60.00,Tuesday
7,5.766666666666667
118,14.377825506882815
2,13, 1,13, 0,23, 0.00,60.00,Tuesday
7,5.716666666666666
118,13.694605567015876
2,13, 1,13, 0,24, 0.00,60.00,Tuesday
7,5.916666666666667
118,13.279287087174483
2,14, 1,14, 0, 1, 0.00,60.00,Wednesday
7,5.533333333333335
118,13.120575005386968
2,14, 1,14, 0, 2, 0.00,60.00,Wednesday
7,5.666666666666667
118,12.997870886239199
2,14, 1,14, 0, 3, 0.00,60.00,Wednesday
7,5.825
118,12.976104846764349
2,14, 1,14, 0, 4, 0.00,60.00,Wednesday
7,5.5249999999999999
118,12.871593744670319
2,14, 1,14, 0, 5, 0.00,60.00,Wednesday
7,5.341666666666668
118,12.774721322951379
2,14, 1,14, 0, 6, 0.00,60.00,Wednesday
7,5.300000000000001
118,12.707254006335952
2,14, 1,14, 0, 7, 0.00,60.00,Wednesday
7,5.241666666666666
118,13.315277808624482
2,14, 1,14, 0, 8, 0.00,60.00,Wednesday
7,5.433333333333334
118,13.55969148908565
2,14, 1,14, 0, 9, 0.00,60.00,Wednesday
7,5.833333333333333
118,13.625046031226822
2,14, 1,14, 0,10, 0.00,60.00,Wednesday
7,6.233333333333333
118,13.68464631108374
2,14, 1,14, 0,11, 0.00,60.00,Wednesday
7,7.916666666666667
118,13.829899277460358
2,14, 1,14, 0,12, 0.00,60.00,Wednesday
7,9.875
118,14.055783995531185
2,14, 1,14, 0,13, 0.00,60.00,Wednesday
7,11.433333333333336
118,14.292148454060366
2,14, 1,14, 0,14, 0.00,60.00,Wednesday
7,12.391666666666666
118,14.548471347889178
2,14, 1,14, 0,15, 0.00,60.00,Wednesday
7,12.833333333333334
118,14.807724884440999
2,14, 1,14, 0,16, 0.00,60.00,Wednesday
7,13.291666666666666
118,15.061752823066698
2,14, 1,14, 0,17, 0.00,60.00,Wednesday
7,12.683333333333332
118,15.250862105161075
2,14, 1,14, 0,18, 0.00,60.00,Wednesday
7,11.341666666666667
118,15.391762255418274
2,14, 1,14, 0,19, 0.00,60.00,Wednesday
7,9.983333333333335
118,15.519886652277345
2,14, 1,14, 0,20, 0.00,60.00,Wednesday
7,9.166666666666666
118,15.60161861811278
2,14, 1,14, 0,21, 0.00,60.00,Wednesday
7,8.825000000000001
118,15.645833656259555
2,14, 1,14, 0,22, 0.00,60.00,Wednesday
7,8.466666666666667
118,15.639481000108275
2,14, 1,14, 0,23, 0.00,60.00,Wednesday
7,8.125
118,14.958145821054052
2,14, 1,14, 0,24, 0.00,60.00,Wednesday
7,7.6499999999999999
118,14.582849223536698
2,15, 1,15, 0, 1, 0.00,60.00,Thursday
7,7.05
118,14.345902698982135
2,15, 1,15, 0, 2, 0.00,60.00,Thursday
7,6.625
118,14.14547579988451
2,15, 1,15, 0, 3, 0.00,60.00,Thursday
7,6.266666666666667
118,13.97416393161032
2,15, 1,15, 0, 4, 0.00,60.00,Thursday
7,5.925
118,13.809719787915903
2,15, 1,15, 0, 5, 0.00,60.00,Thursday
7,5.333333333333333
118,13.631039041420858
2,15, 1,15, 0, 6, 0.00,60.00,Thursday
7,4.708333333333333
118,13.427337412506319
2,15, 1,15, 0, 7, 0.00,60.00,Thursday
7,4.266666666666667
118,13.96266310779656
2,15, 1,15, 0, 8, 0.00,60.00,Thursday
7,4.041666666666667
118,14.295066144157209
2,15, 1,15, 0, 9, 0.00,60.00,Thursday
7,4.466666666666667
118,14.319084609891604
2,15, 1,15, 0,10, 0.00,60.00,Thursday
7,5.325
118,14.354800013449426
2,15, 1,15, 0,11, 0.00,60.00,Thursday
7,6.75
118,14.452264357191086
2,15, 1,15, 0,12, 0.00,60.00,Thursday
7,8.608333333333333
118,14.601528728505704
2,15, 1,15, 0,13, 0.00,60.00,Thursday
7,10.450000000000001
118,14.76684335626931
2,15, 1,15, 0,14, 0.00,60.00,Thursday
7,11.666666666666666
118,14.954213701795027
2,15, 1,15, 0,15, 0.00,60.00,Thursday
7,12.0
118,15.160167511872304
2,15, 1,15, 0,16, 0.00,60.00,Thursday
7,12.0
118,15.353963296822052
2,15, 1,15, 0,17, 0.00,60.00,Thursday
7,11.183333333333332
118,15.513327402520213
2,15, 1,15, 0,18, 0.00,60.00,Thursday
7,9.841666666666667
118,15.63466772484585
2,15, 1,15, 0,19, 0.00,60.00,Thursday
7,8.483333333333335
118,15.722710683633247
2,15, 1,15, 0,20, 0.00,60.00,Thursday
7,7.491666666666667
118,15.756139246671948
2,15, 1,15, 0,21, 0.00,60.00,Thursday
7,6.791666666666667
118,15.738591414755137
2,15, 1,15, 0,22, 0.00,60.00,Thursday
7,6.091666666666666
118,15.664146136390697
2,15, 1,15, 0,23, 0.00,60.00,Thursday
7,5.625
118,14.697769038917733
2,15, 1,15, 0,24, 0.00,60.00,Thursday
7,5.383333333333333
118,14.234888702215521
2,16, 1,16, 0, 1, 0.00,60.00,Friday
7,5.125
118,13.988193071042526
2,16, 1,16, 0, 2, 0.00,60.00,Friday
7,4.416666666666667
118,13.731872089518584
2,16, 1,16, 0, 3, 0.00,60.00,Friday
7,3.8833333333333335
118,13.470959987799711
2,16, 1,16, 0, 4, 0.00,60.00,Friday
7,3.6833333333333337
118,13.278625711319
2,16, 1,16, 0, 5, 0.00,60.00,Friday
7,3.483333333333333
118,13.103641783796724
2,16, 1,16, 0, 6, 0.00,60.00,Friday
7,3.283333333333333
118,12.939754516056157
2,16, 1,16, 0, 7, 0.00,60.00,Friday
7,3.0833333333333337
118,13.555477873339252
2,16, 1,16, 0, 8, 0.00,60.00,Friday
7,2.7083333333333337
118,13.916413609990656
2,16, 1,16, 0, 9, 0.00,60.00,Friday
7,2.2083333333333337
118,13.908679799207873
2,16, 1,16, 0,10, 0.00,60.00,Friday
7,2.8166666666666666
118,13.903234397572327
2,16, 1,16, 0,11, 0.00,60.00,Friday
7,4.041666666666667
118,13.988634874296857
2,16, 1,16, 0,12, 0.00,60.00,Friday
7,5.083333333333333
118,14.10310408861684
2,16, 1,16, 0,13, 0.00,60.00,Friday
7,6.141666666666667
118,14.238055523651945
2,16, 1,16, 0,14, 0.00,60.00,Friday
7,7.591666666666666
118,14.417872073240588
2,16, 1,16, 0,15, 0.00,60.00,Friday
7,9.291666666666666
118,14.646815464414014
2,16, 1,16, 0,16, 0.00,60.00,Friday
7,10.175000000000003
118,14.893774361908639
2,16, 1,16, 0,17, 0.00,60.00,Friday
7,9.483333333333335
118,15.06425602885109
2,16, 1,16, 0,18, 0.00,60.00,Friday
7,8.141666666666668