Program Version,EnergyPlus, Version 9.4.0-998c4b761e, YMD=2020.12.30 20:11
1,5,Environment Title[],Latitude[deg],Longitude[deg],Time Zone[],Elevation[m]
2,8,Day of Simulation[],Month[],Day of Month[],DST Indicator[1=yes 0=no],Hour[],StartMinute[],EndMinute[],DayType
3,5,Cumulative Day of Simulation[],Month[],Day of Month[],DST Indicator[1=yes 0=no],DayType  ! When Daily Report Variables Requested
4,2,Cumulative Days of Simulation[],Month[]  ! When Monthly Report Variables Requested
5,1,Cumulative Days of Simulation[] ! When Run Period Report Variables Requested
6,1,Calendar Year of Simulation[] ! When Annual Report Variables Requested
7,1,Environment,Site Outdoor Air Drybulb Temperature [C] !Hourly
118,1,THERMAL ZONE 1 THERMAL ZONE,Zone Air Temperature [C] !Hourly
End of Data Dictionary
1,RUN PERIOD 1,  39.74,-105.18,  -7.00,1829.00
2,1, 1, 1, 0, 1, 0.00,60.00,Thursday
7,-4.666666666666667
118,10.327779164547917
2,1, 1, 1, 0, 2, 0.00,60.00,Thursday
7,-3.0
118,10.459676236130728
2,1, 1, 1, 0, 3, 0.00,60.00,Thursday
7,-3.5833333333333337
118,10.30104714636203
2,1, 1, 1, 0, 4, 0.00,60.00,Thursday
7,-2.8333333333333337
118,10.218339123673808
2,1, 1, 1, 0, 5, 0.00,60.00,Thursday
7,-2.0
118,10.265106699638132
2,1, 1, 1, 0, 6, 0.00,60.00,Thursday
7,-1.4166666666666668
118,10.25930320673226
2,1, 1, 1, 0, 7, 0.00,60.00,Thursday
7,-1.0
118,11.084766786346178
2,1, 1, 1, 0, 8, 0.00,60.00,Thursday
7,-1.0
118,11.359526432241316
2,1, 1, 1, 0, 9, 0.00,60.00,Thursday
7,-0.4166666666666667
118,11.561806952135158
2,1, 1, 1, 0,10, 0.00,60.00,Thursday
7,1.1666666666666668
118,11.678001998776262
2,1, 1, 1, 0,11, 0.00,60.00,Thursday
7,2.0
118,11.9336454601103
2,1, 1, 1, 0,12, 0.00,60.00,Thursday
7,1.4166666666666668
118,12.111499937692792
2,1, 1, 1, 0,13, 0.00,60.00,Thursday
7,2.1666666666666667
118,12.256003686519606
2,1, 1, 1, 0,14, 0.00,60.00,Thursday
7,2.4166666666666667
118,12.458696486285043
2,1, 1, 1, 0,15, 0.00,60.00,Thursday
7,1.4166666666666668
118,12.616129007766523
2,1, 1, 1, 0,16, 0.00,60.00,Thursday
7,1.0
118,12.769538466973764
2,1, 1, 1, 0,17, 0.00,60.00,Thursday
7,0.4166666666666667
118,12.909077792906127
2,1, 1, 1, 0,18, 0.00,60.00,Thursday
7,-0.5833333333333334
118,12.931036784537844
2,1, 1, 1, 0,19, 0.00,60.00,Thursday
7,-1.5833333333333333
118,12.913900888363595
2,1, 1, 1, 0,20, 0.00,60.00,Thursday
7,-3.1666666666666667
118,12.840352166169943
2,1, 1, 1, 0,21, 0.00,60.00,Thursday
7,-4.583333333333333
118,12.717245494695114
2,1, 1, 1, 0,22, 0.00,60.00,Thursday
7,-5.583333333333333
118,12.593327062027703
2,1, 1, 1, 0,23, 0.00,60.00,Thursday
7,-6.583333333333333
118,11.249204571293865
2,1, 1, 1, 0,24, 0.00,60.00,Thursday
7,-7.0
118,10.402391566963374
2,2, 1, 2, 0, 1, 0.00,60.00,Friday
7,-8.166666666666666
118,10.01087842760147
2,2, 1, 2, 0, 2, 0.00,60.00,Friday
7,-9.583333333333334
118,9.596426276933899
2,2, 1, 2, 0, 3, 0.00,60.00,Friday
7,-10.0
118,9.297560898999569
2,2, 1, 2, 0, 4, 0.00,60.00,Friday
7,-10.583333333333334
118,9.040229298885932
2,2, 1, 2, 0, 5, 0.00,60.00,Friday
7,-11.583333333333334
118,8.721374979818503
2,2, 1, 2, 0, 6, 0.00,60.00,Friday
7,-13.75
118,8.29163376428789
2,2, 1, 2, 0, 7, 0.00,60.00,Friday
7,-14.416666666666666
118,9.354969126840773
2,2, 1, 2, 0, 8, 0.00,60.00,Friday
7,-13.416666666666666
118,10.035012867732137
2,2, 1, 2, 0, 9, 0.00,60.00,Friday
7,-11.833333333333334
118,10.188575681539419
2,2, 1, 2, 0,10, 0.00,60.00,Friday
7,-8.666666666666666
118,10.265783340522175
2,2, 1, 2, 0,11, 0.00,60.00,Friday
7,-6.416666666666667
118,10.316997200024474
2,2, 1, 2, 0,12, 0.00,60.00,Friday
7,-6.0
118,10.42926764059296
2,2, 1, 2, 0,13, 0.00,60.00,Friday
7,-5.416666666666667
118,10.506526158030868
2,2, 1, 2, 0,14, 0.00,60.00,Friday
7,-5.0
118,10.546975339848528
2,2, 1, 2, 0,15, 0.00,60.00,Friday
7,-5.583333333333333
118,10.765108647743839
2,2, 1, 2, 0,16, 0.00,60.00,Friday
7,-6.583333333333333
118,10.844755059562381
2,2, 1, 2, 0,17, 0.00,60.00,Friday
7,-7.583333333333333
118,10.929827186954383
2,2, 1, 2, 0,18, 0.00,60.00,Friday
7,-8.0
118,11.025959222287929
2,2, 1, 2, 0,19, 0.00,60.00,Friday
7,-8.583333333333334
118,11.085859272430346
2,2, 1, 2, 0,20, 0.00,60.00,Friday
7,-10.166666666666666
118,11.044408610331102
2,2, 1, 2, 0,21, 0.00,60.00,Friday
7,-11.0
118,10.955933313869219
2,2, 1, 2, 0,22, 0.00,60.00,Friday
7,-11.0
118,10.880343187191578
2,2, 1, 2, 0,23, 0.00,60.00,Friday
7,-11.583333333333334
118,9.347700222940258
2,2, 1, 2, 0,24, 0.00,60.00,Friday
7,-12.0
118,8.471093329695292
2,3, 1, 3, 0, 1, 0.00,60.00,Saturday
7,-12.583333333333334
118,8.098611397256969
2,3, 1, 3, 0, 2, 0.00,60.00,Saturday
7,-13.116666666666668
118,7.775969212884246
2,3, 1, 3, 0, 3, 0.00,60.00,Saturday
7,-13.433333333333332
118,7.531348926762153
2,3, 1, 3, 0, 4, 0.00,60.00,Saturday
7,-13.833333333333334
118,7.300629042462127
2,3, 1, 3, 0, 5, 0.00,60.00,Saturday
7,-14.0
118,7.106110341840456
2,3, 1, 3, 0, 6, 0.00,60.00,Saturday
7,-14.0
118,6.960258222930364
2,3, 1, 3, 0, 7, 0.00,60.00,Saturday
7,-14.0
118,8.100326192668352
2,3, 1, 3, 0, 8, 0.00,60.00,Saturday
7,-15.75
118,8.687138587791356
2,3, 1, 3, 0, 9, 0.00,60.00,Saturday
7,-14.666666666666666
118,8.920530666189462
2,3, 1, 3, 0,10, 0.00,60.00,Saturday
7,-11.833333333333334
118,9.175273193240555
2,3, 1, 3, 0,11, 0.00,60.00,Saturday
7,-9.833333333333334
118,9.287175984800618
2,3, 1, 3, 0,12, 0.00,60.00,Saturday
7,-8.416666666666666
118,9.47059909742231
2,3, 1, 3, 0,13, 0.00,60.00,Saturday
7,-7.416666666666667
118,9.790440581057818
2,3, 1, 3, 0,14, 0.00,60.00,Saturday
7,-7.058333333333334
118,10.112980950799092
2,3, 1, 3, 0,15, 0.00,60.00,Saturday
7,-7.508333333333333
118,10.433799985377283
2,3, 1, 3, 0,16, 0.00,60.00,Saturday
7,-8.5
118,10.71276339093569
2,3, 1, 3, 0,17, 0.00,60.00,Saturday
7,-9.0
118,10.899523264927313
2,3, 1, 3, 0,18, 0.00,60.00,Saturday
7,-9.0
118,11.07768096150909
2,3, 1, 3, 0,19, 0.00,60.00,Saturday
7,-9.0
118,9.865902364121803
2,3, 1, 3, 0,20, 0.00,60.00,Saturday
7,-9.0
118,9.50350628829927
2,3, 1, 3, 0,21, 0.00,60.00,Saturday
7,-8.416666666666666
118,9.391645979268392
2,3, 1, 3, 0,22, 0.00,60.00,Saturday
7,-8.583333333333334
118,9.267675546840579
2,3, 1, 3, 0,23, 0.00,60.00,Saturday
7,-9.0
118,9.057865342893282
2,3, 1, 3, 0,24, 0.00,60.00,Saturday
7,-9.0
118,8.899927991379576
2,4, 1, 4, 0, 1, 0.00,60.00,Sunday
7,-8.416666666666666
118,8.808572579948616
2,4, 1, 4, 0, 2, 0.00,60.00,Sunday
7,-9.166666666666666
118,8.659644573010552
2,4, 1, 4, 0, 3, 0.00,60.00,Sunday
7,-9.416666666666666
118,8.454014198726993
2,4, 1, 4, 0, 4, 0.00,60.00,Sunday
7,-9.583333333333334
118,8.327955929987553
2,4, 1, 4, 0, 5, 0.00,60.00,Sunday
7,-8.833333333333334
118,8.247967494541717
2,4, 1, 4, 0, 6, 0.00,60.00,Sunday
7,-8.933333333333334
118,8.20668904075368
2,4, 1, 4, 0, 7, 0.00,60.00,Sunday
7,-10.416666666666666
118,7.93685313177291
2,4, 1, 4, 0, 8, 0.00,60.00,Sunday
7,-9.25
118,7.872588580924862
2,4, 1, 4, 0, 9, 0.00,60.00,Sunday
7,-5.666666666666667
118,8.21139898110915
2,4, 1, 4, 0,10, 0.00,60.00,Sunday
7,-2.25
118,8.72575607113866
2,4, 1, 4, 0,11, 0.00,60.00,Sunday
7,-0.4166666666666667
118,9.047046267514068
2,4, 1, 4, 0,12, 0.00,60.00,Sunday
7,0.5833333333333334
118,9.230142943919235
2,4, 1, 4, 0,13, 0.00,60.00,Sunday
7,1.5833333333333333
118,9.4916036731569
2,4, 1, 4, 0,14, 0.00,60.00,Sunday
7,2.5833333333333337
118,9.949467084696183
2,4, 1, 4, 0,15, 0.00,60.00,Sunday
7,3.5833333333333337
118,10.332038359407785
2,4, 1, 4, 0,16, 0.00,60.00,Sunday
7,2.8333333333333337
118,10.552917068290242
2,4, 1, 4, 0,17, 0.00,60.00,Sunday
7,1.4166666666666668
118,10.582086789130824
2,4, 1, 4, 0,18, 0.00,60.00,Sunday
7,1.0
118,10.663644072982758
2,4, 1, 4, 0,19, 0.00,60.00,Sunday
7,1.0
118,10.851975237304494
2,4, 1, 4, 0,20, 0.00,60.00,Sunday
7,-0.16666666666666664
118,10.907515146565329
2,4, 1, 4, 0,21, 0.00,60.00,Sunday
7,-1.0
118,10.843859964169129
2,4, 1, 4, 0,22, 0.00,60.00,Sunday
7,0.75
118,10.98210985053988
2,4, 1, 4, 0,23, 0.00,60.00,Sunday
7,2.0
118,11.185018105574367
2,4, 1, 4, 0,24, 0.00,60.00,Sunday
7,2.0
118,11.199037322920346
2,5, 1, 5, 0, 1, 0.00,60.00,Monday
7,2.5833333333333337
118,11.241942770620616
2,5, 1, 5, 0, 2, 0.00,60.00,Monday
7,3.0
118,11.309828031401024
2,5, 1, 5, 0, 3, 0.00,60.00,Monday
7,3.5833333333333337
118,11.369635536062502
2,5, 1, 5, 0, 4, 0.00,60.00,Monday
7,4.583333333333333
118,11.501989567514315
2,5, 1, 5, 0, 5, 0.00,60.00,Monday
7,4.416666666666667
118,11.547942308498003
2,5, 1, 5, 0, 6, 0.00,60.00,Monday
7,2.8333333333333337
118,11.395281462081991
2,5, 1, 5, 0, 7, 0.00,60.00,Monday
7,2.0
118,11.918629430524789
2,5, 1, 5, 0, 8, 0.00,60.00,Monday
7,2.5833333333333337
118,12.177949382530896
2,5, 1, 5, 0, 9, 0.00,60.00,Monday
7,3.5833333333333337
118,12.316121718718505
2,5, 1, 5, 0,10, 0.00,60.00,Monday
7,5.108333333333333
118,12.445527688236283
2,5, 1, 5, 0,11, 0.00,60.00,Monday
7,6.541666666666667
118,12.725455874128763
2,5, 1, 5, 0,12, 0.00,60.00,Monday
7,7.0
118,13.011719156911353
2,5, 1, 5, 0,13, 0.00,60.00,Monday
7,7.0
118,13.242681628014133
2,5, 1, 5, 0,14, 0.00,60.00,Monday
7,7.583333333333333
118,13.4547157923568
2,5, 1, 5, 0,15, 0.00,60.00,Monday
7,8.0
118,13.793042310104165
2,5, 1, 5, 0,16, 0.00,60.00,Monday
7,7.416666666666667
118,14.103082486258233
2,5, 1, 5, 0,17, 0.00,60.00,Monday
7,6.416666666666667
118,14.29632101049683
2,5, 1, 5, 0,18, 0.00,60.00,Monday
7,4.833333333333333
118,14.410999713565487
2,5, 1, 5, 0,19, 0.00,60.00,Monday
7,3.4166666666666667
118,14.519155283221189
2,5, 1, 5, 0,20, 0.00,60.00,Monday
7,2.4166666666666667
118,14.582387918825864
2,5, 1, 5, 0,21, 0.00,60.00,Monday
7,3.1666666666666667
118,14.6098924223235
2,5, 1, 5, 0,22, 0.00,60.00,Monday
7,1.0833333333333333
118,14.535483633450275
2,5, 1, 5, 0,23, 0.00,60.00,Monday
7,0.16666666666666664
118,13.298828236392554
2,5, 1, 5, 0,24, 0.00,60.00,Monday
7,1.0
118,12.953800596342978
2,6, 1, 6, 0, 1, 0.00,60.00,Tuesday
7,1.5833333333333333
118,12.789518374466388
2,6, 1, 6, 0, 2, 0.00,60.00,Tuesday
7,2.5833333333333337
118,12.74273405421421
2,6, 1, 6, 0, 3, 0.00,60.00,Tuesday
7,4.75
118,12.841633451999338
2,6, 1, 6, 0, 4, 0.00,60.00,Tuesday
7,4.833333333333333
118,12.876806347401429
2,6, 1, 6, 0, 5, 0.00,60.00,Tuesday
7,1.0833333333333333
118,12.416496612551283
2,6, 1, 6, 0, 6, 0.00,60.00,Tuesday
7,1.9166666666666668
118,12.190290640094665
2,6, 1, 6, 0, 7, 0.00,60.00,Tuesday
7,3.4166666666666667
118,13.055458056974502
2,6, 1, 6, 0, 8, 0.00,60.00,Tuesday
7,1.8333333333333333
118,13.241657135710393
2,6, 1, 6, 0, 9, 0.00,60.00,Tuesday
7,3.9166666666666667
118,13.365175540867965
2,6, 1, 6, 0,10, 0.00,60.00,Tuesday
7,7.75
118,13.66600087107397
2,6, 1, 6, 0,11, 0.00,60.00,Tuesday
7,9.583333333333334
118,13.957562616660163
2,6, 1, 6, 0,12, 0.00,60.00,Tuesday
7,10.583333333333334
118,14.238361572546792
2,6, 1, 6, 0,13, 0.00,60.00,Tuesday
7,11.583333333333334
118,14.570250916193447
2,6, 1, 6, 0,14, 0.00,60.00,Tuesday
7,12.0
118,14.933520010715185
2,6, 1, 6, 0,15, 0.00,60.00,Tuesday
7,12.0
118,15.315279842961083
2,6, 1, 6, 0,16, 0.00,60.00,Tuesday
7,11.416666666666666
118,15.727419358995404
2,6, 1, 6, 0,17, 0.00,60.00,Tuesday
7,6.916666666666667
118,15.930272237373322
2,6, 1, 6, 0,18, 0.00,60.00,Tuesday
7,2.25
118,15.9303308201725
2,6, 1, 6, 0,19, 0.00,60.00,Tuesday
7,-0.16666666666666664
118,15.973787216074962
2,6, 1, 6, 0,20, 0.00,60.00,Tuesday
7,-2.1666666666666667
118,15.93997919647886
2,6, 1, 6, 0,21, 0.00,60.00,Tuesday
7,-3.0
118,15.837948158370985
2,6, 1, 6, 0,22, 0.00,60.00,Tuesday
7,-3.0
118,15.6747526317235
2,6, 1, 6, 0,23, 0.00,60.00,Tuesday
7,-3.5833333333333337
118,14.280964410697072
2,6, 1, 6, 0,24, 0.00,60.00,Tuesday
7,-4.0
118,13.353986388630702
2,7, 1, 7, 0, 1, 0.00,60.00,Wednesday
7,-4.0
118,12.93487842528655
2,7, 1, 7, 0, 2, 0.00,60.00,Wednesday
7,-4.583333333333333
118,12.55139790472542
2,7, 1, 7, 0, 3, 0.00,60.00,Wednesday
7,-4.416666666666667
118,12.22770681482019
2,7, 1, 7, 0, 4, 0.00,60.00,Wednesday
7,-2.25
118,12.17082404309209
2,7, 1, 7, 0, 5, 0.00,60.00,Wednesday
7,-1.0
118,12.177772234657896
2,7, 1, 7, 0, 6, 0.00,60.00,Wednesday
7,0.16666666666666664
118,12.119245963809766
2,7, 1, 7, 0, 7, 0.00,60.00,Wednesday
7,2.1666666666666667
118,12.99778785081543
2,7, 1, 7, 0, 8, 0.00,60.00,Wednesday
7,1.8333333333333333
118,13.232991851196536
2,7, 1, 7, 0, 9, 0.00,60.00,Wednesday
7,1.5833333333333333
118,13.35499984461827
2,7, 1, 7, 0,10, 0.00,60.00,Wednesday
7,4.916666666666667
118,13.604796448834554
2,7, 1, 7, 0,11, 0.00,60.00,Wednesday
7,8.75
118,13.939234023382005
2,7, 1, 7, 0,12, 0.00,60.00,Wednesday
7,11.166666666666666
118,14.291379873489305
2,7, 1, 7, 0,13, 0.00,60.00,Wednesday
7,12.583333333333334
118,14.67570512205126
2,7, 1, 7, 0,14, 0.00,60.00,Wednesday
7,13.0
118,15.119978489701465
2,7, 1, 7, 0,15, 0.00,60.00,Wednesday
7,13.0
118,15.577440894745964
2,7, 1, 7, 0,16, 0.00,60.00,Wednesday
7,9.5
118,15.91994908904362
2,7, 1, 7, 0,17, 0.00,60.00,Wednesday
7,5.25
118,16.063676768800474
2,7, 1, 7, 0,18, 0.00,60.00,Wednesday
7,2.8333333333333337
118,16.178941367006947
2,7, 1, 7, 0,19, 0.00,60.00,Wednesday
7,0.25
118,16.235372016661658
2,7, 1, 7, 0,20, 0.00,60.00,Wednesday
7,-1.5833333333333333
118,16.18125113089771
2,7, 1, 7, 0,21, 0.00,60.00,Wednesday
7,-1.4166666666666668
118,16.077641916899379
2,7, 1, 7, 0,22, 0.00,60.00,Wednesday
7,-1.0
118,15.930864771420384
2,7, 1, 7, 0,23, 0.00,60.00,Wednesday
7,-1.0
118,14.55766868817156
2,7, 1, 7, 0,24, 0.00,60.00,Wednesday
7,-1.5833333333333333
118,13.832768199610888
2,8, 1, 8, 0, 1, 0.00,60.00,Thursday
7,-1.4166666666666668
118,13.422089219782789
2,8, 1, 8, 0, 2, 0.00,60.00,Thursday
7,-1.5833333333333333
118,13.114032100474104
2,8, 1, 8, 0, 3, 0.00,60.00,Thursday
7,-1.4166666666666668
118,12.828929537305802
2,8, 1, 8, 0, 4, 0.00,60.00,Thursday
7,-1.0
118,12.65564608819041
2,8, 1, 8, 0, 5, 0.00,60.00,Thursday
7,-1.5833333333333333
118,12.399753936351706
2,8, 1, 8, 0, 6, 0.00,60.00,Thursday
7,-2.0
118,12.135784399318974
2,8, 1, 8, 0, 7, 0.00,60.00,Thursday
7,-2.0
118,13.031120111847855
2,8, 1, 8, 0, 8, 0.00,60.00,Thursday
7,-2.0
118,13.271066469858951
2,8, 1, 8, 0, 9, 0.00,60.00,Thursday
7,-2.5833333333333337
118,13.33555900223422
2,8, 1, 8, 0,10, 0.00,60.00,Thursday
7,-2.4166666666666667
118,13.294605746021482
2,8, 1, 8, 0,11, 0.00,60.00,Thursday
7,-2.0
118,13.232655051173504
2,8, 1, 8, 0,12, 0.00,60.00,Thursday
7,-2.0
118,13.21373488074254
2,8, 1, 8, 0,13, 0.00,60.00,Thursday
7,-1.4166666666666668
118,13.24647274113853
2,8, 1, 8, 0,14, 0.00,60.00,Thursday
7,0.16666666666666664
118,13.385281566106814
2,8, 1, 8, 0,15, 0.00,60.00,Thursday
7,1.0
118,13.588791784882409
2,8, 1, 8, 0,16, 0.00,60.00,Thursday
7,0.4166666666666667
118,13.690860463956812
2,8, 1, 8, 0,17, 0.00,60.00,Thursday
7,-1.75
118,13.652216431427247
2,8, 1, 8, 0,18, 0.00,60.00,Thursday
7,-4.166666666666667
118,13.557287651976545
2,8, 1, 8, 0,19, 0.00,60.00,Thursday
7,-5.583333333333333
118,13.541896118175658
2,8, 1, 8, 0,20, 0.00,60.00,Thursday
7,-6.0
118,13.524645729710152
2,8, 1, 8, 0,21, 0.00,60.00,Thursday
7,-6.0
118,13.463526647275592
2,8, 1, 8, 0,22, 0.00,60.00,Thursday
7,-4.833333333333333
118,13.372946371196809
2,8, 1, 8, 0,23, 0.00,60.00,Thursday
7,-4.583333333333333
118,11.993330688519626
2,8, 1, 8, 0,24, 0.00,60.00,Thursday
7,-4.416666666666667
118,11.359515960486041
2,9, 1, 9, 0, 1, 0.00,60.00,Friday
7,-5.166666666666667
118,11.016355790437567
2,9, 1, 9, 0, 2, 0.00,60.00,Friday
7,-4.25
118,10.797999640620282
2,9, 1, 9, 0, 3, 0.00,60.00,Friday
7,-2.4166666666666667
118,10.86086569192257
2,9, 1, 9, 0, 4, 0.00,60.00,Friday
7,-2.0
118,10.810867545740564
2,9, 1, 9, 0, 5, 0.00,60.00,Friday
7,-2.0
118,10.707698218686629
2,9, 1, 9, 0, 6, 0.00,60.00,Friday
7,-3.1666666666666667
118,10.506349772914306
2,9, 1, 9, 0, 7, 0.00,60.00,Friday
7,-5.166666666666667
118,11.328904050630394
2,9, 1, 9, 0, 8, 0.00,60.00,Friday
7,-4.25
118,11.613526179103899
2,9, 1, 9, 0, 9, 0.00,60.00,Friday
7,-0.6666666666666666
118,11.913382227710529
2,9, 1, 9, 0,10, 0.00,60.00,Friday
7,2.75
118,12.211108817877723
2,9, 1, 9, 0,11, 0.00,60.00,Friday
7,5.166666666666667
118,12.496731380524574
2,9, 1, 9, 0,12, 0.00,60.00,Friday
7,7.166666666666667
118,12.83139866101711
2,9, 1, 9, 0,13, 0.00,60.00,Friday
7,8.0
118,13.232388081771293
2,9, 1, 9, 0,14, 0.00,60.00,Friday
7,8.0
118,13.647909534930854
2,9, 1, 9, 0,15, 0.00,60.00,Friday
7,8.583333333333334
118,14.090122045893095
2,9, 1, 9, 0,16, 0.00,60.00,Friday
7,7.833333333333333
118,14.497723837637773
2,9, 1, 9, 0,17, 0.00,60.00,Friday
7,4.666666666666667
118,14.724205701502735
2,9, 1, 9, 0,18, 0.00,60.00,Friday
7,2.4166666666666667
118,14.844848283151274
2,9, 1, 9, 0,19, 0.00,60.00,Friday
7,1.4750000000000004
118,15.005404666285818
2,9, 1, 9, 0,20, 0.00,60.00,Friday
7,-0.0666666666666666
118,15.058636548470858
2,9, 1, 9, 0,21, 0.00,60.00,Friday
7,0.32499999999999998
118,15.046509165916893
2,9, 1, 9, 0,22, 0.00,60.00,Friday
7,1.2
118,15.02359265383564
2,9, 1, 9, 0,23, 0.00,60.00,Friday
7,1.7833333333333333
118,13.961452950498485
2,9, 1, 9, 0,24, 0.00,60.00,Friday
7,1.675
118,13.522147172350606
2,10, 1,10, 0, 1, 0.00,60.00,Saturday
7,1.3
118,13.217904385016262
2,10, 1,10, 0, 2, 0.00,60.00,Saturday
7,3.108333333333333
118,13.169397517295286
2,10, 1,10, 0, 3, 0.00,60.00,Saturday
7,4.3999999999999999
118,13.243651049358796
2,10, 1,10, 0, 4, 0.00,60.00,Saturday
7,3.233333333333333
118,13.057304386043981
2,10, 1,10, 0, 5, 0.00,60.00,Saturday
7,4.208333333333333
118,12.971096446668
2,10, 1,10, 0, 6, 0.00,60.00,Saturday
7,4.858333333333334
118,13.047805132273135
2,10, 1,10, 0, 7, 0.00,60.00,Saturday
7,3.9333333333333337
118,13.549477138873863
2,10, 1,10, 0, 8, 0.00,60.00,Saturday
7,4.766666666666667
118,13.76343524303283
2,10, 1,10, 0, 9, 0.00,60.00,Saturday
7,6.766666666666667
118,14.017300732497935
2,10, 1,10, 0,10, 0.00,60.00,Saturday
7,9.408333333333332
118,14.297287864692139
2,10, 1,10, 0,11, 0.00,60.00,Saturday
7,10.700000000000001
118,14.563455820886722
2,10, 1,10, 0,12, 0.00,60.00,Saturday
7,10.233333333333333
118,14.82561737271432
2,10, 1,10, 0,13, 0.00,60.00,Saturday
7,9.258333333333333
118,15.136829221675323
2,10, 1,10, 0,14, 0.00,60.00,Saturday
7,6.466666666666666
118,15.428007047773932
2,10, 1,10, 0,15, 0.00,60.00,Saturday
7,4.2749999999999999
118,15.684386327378057
2,10, 1,10, 0,16, 0.00,60.00,Saturday
7,3.3166666666666666
118,15.947200508056242
2,10, 1,10, 0,17, 0.00,60.00,Saturday
7,2.375
118,16.11795328126026
2,10, 1,10, 0,18, 0.00,60.00,Saturday
7,1.4166666666666668
118,16.21141023666915
2,10, 1,10, 0,19, 0.00,60.00,Saturday
7,1.0
118,15.165747992555629
2,10, 1,10, 0,20, 0.00,60.00,Saturday
7,2.1666666666666667
118,14.883075544820457
2,10, 1,10, 0,21, 0.00,60.00,Saturday
7,3.0
118,14.811552991374703
2,10, 1,10, 0,22, 0.00,60.00,Saturday
7,3.5833333333333337
118,14.670441468180267
2,10, 1,10, 0,23, 0.00,60.00,Saturday
7,4.0
118,14.535134517801092
2,10, 1,10, 0,24, 0.00,60.00,Saturday
7,5.166666666666667
118,14.447862436817714
2,11, 1,11, 0, 1, 0.00,60.00,Sunday
7,4.833333333333333
118,14.322777881750513
2,11, 1,11, 0, 2, 0.00,60.00,Sunday
7,2.8333333333333337
118,13.933234621483783
2,11, 1,11, 0, 3, 0.00,60.00,Sunday
7,4.333333333333333
118,13.804385906942207
2,11, 1,11, 0, 4, 0.00,60.00,Sunday
7,4.25
118,13.772091484238857
2,11, 1,11, 0, 5, 0.00,60.00,Sunday
7,2.4166666666666667
118,13.393034372062461
2,11, 1,11, 0, 6, 0.00,60.00,Sunday
7,0.8333333333333334
118,13.056419460829936
2,11, 1,11, 0, 7, 0.00,60.00,Sunday
7,4.083333333333333
118,13.114777430654306
2,11, 1,11, 0, 8, 0.00,60.00,Sunday
7,4.666666666666667
118,13.317264232755202
2,11, 1,11, 0, 9, 0.00,60.00,Sunday
7,5.916666666666667
118,13.336814722066814
2,11, 1,11, 0,10, 0.00,60.00,Sunday
7,10.333333333333334
118,13.884663432715508
2,11, 1,11, 0,11, 0.00,60.00,Sunday
7,13.166666666666666
118,14.364172908399468
2,11, 1,11, 0,12, 0.00,60.00,Sunday
7,15.166666666666666
118,14.741095326390692
2,11, 1,11, 0,13, 0.00,60.00,Sunday
7,14.833333333333334
118,15.012365262595687
2,11, 1,11, 0,14, 0.00,60.00,Sunday
7,14.583333333333334
118,15.202912775527004
2,11, 1,11, 0,15, 0.00,60.00,Sunday
7,16.166666666666669
118,15.607287916915686
2,11, 1,11, 0,16, 0.00,60.00,Sunday
7,15.833333333333334
118,15.913446067769529
2,11, 1,11, 0,17, 0.00,60.00,Sunday
7,11.5
118,15.68897252077553
2,11, 1,11, 0,18, 0.00,60.00,Sunday
7,8.416666666666666
118,15.292123964237204
2,11, 1,11, 0,19, 0.00,60.00,Sunday
7,8.0
118,15.22560152169543
2,11, 1,11, 0,20, 0.00,60.00,Sunday
7,6.833333333333333
118,15.110502506973992
2,11, 1,11, 0,21, 0.00,60.00,Sunday
7,6.583333333333333
118,14.95540570844994
2,11, 1,11, 0,22, 0.00,60.00,Sunday
7,7.0
118,14.926430204378264
2,11, 1,11, 0,23, 0.00,60.00,Sunday
7,5.833333333333333
118,14.723339033695938
2,11, 1,11, 0,24, 0.00,60.00,Sunday
7,5.583333333333333
118,14.493581778401556
2,12, 1,12, 0, 1, 0.00,60.00,Monday
7,4.25
118,14.259762503486689
2,12, 1,12, 0, 2, 0.00,60.00,Monday
7,3.0
118,13.900018474309759
2,12, 1,12, 0, 3, 0.00,60.00,Monday
7,3.5833333333333337
118,13.767834758274212
2,12, 1,12, 0, 4, 0.00,60.00,Monday
7,1.6666666666666668
118,13.488819847363546
2,12, 1,12, 0, 5, 0.00,60.00,Monday
7,0.5833333333333334
118,13.103528559622094
2,12, 1,12, 0, 6, 0.00,60.00,Monday
7,1.5833333333333333
118,13.020970429224756
2,12, 1,12, 0, 7, 0.00,60.00,Monday
7,2.5833333333333337
118,13.854229460274738
2,12, 1,12, 0, 8, 0.00,60.00,Monday
7,0.6666666666666666
118,14.026583880772883
2,12, 1,12, 0, 9, 0.00,60.00,Monday
7,3.0833333333333337
118,14.060152615081082
2,12, 1,12, 0,10, 0.00,60.00,Monday
7,6.583333333333333
118,14.170537397914602
2,12, 1,12, 0,11, 0.00,60.00,Monday
7,7.0
118,14.162537957673698
2,12, 1,12, 0,12, 0.00,60.00,Monday
7,7.058333333333334
118,14.156608866715113
2,12, 1,12, 0,13, 0.00,60.00,Monday
7,7.041666666666667
118,14.205253260151004
2,12, 1,12, 0,14, 0.00,60.00,Monday
7,7.0
118,14.410833242427941
2,12, 1,12, 0,15, 0.00,60.00,Monday
7,7.0
118,14.600104774537983
2,12, 1,12, 0,16, 0.00,60.00,Monday
7,5.25
118,14.615205401554917
2,12, 1,12, 0,17, 0.00,60.00,Monday
7,2.8333333333333337
118,14.60456374104507
2,12, 1,12, 0,18, 0.00,60.00,Monday
7,0.8333333333333334
118,14.599616407884353
2,12, 1,12, 0,19, 0.00,60.00,Monday
7,-1.1666666666666668
118,14.5731095545584
2,12, 1,12, 0,20, 0.00,60.00,Monday
7,-2.5833333333333337
118,14.502825254076852
2,12, 1,12, 0,21, 0.00,60.00,Monday
7,-2.4166666666666667
118,14.420800952739527
2,12, 1,12, 0,22, 0.00,60.00,Monday
7,-2.0
118,14.322328941176636
2,12, 1,12, 0,23, 0.00,60.00,Monday
7,-2.0
118,13.001146517390623
2,12, 1,12, 0,24, 0.00,60.00,Monday
7,-2.0
118,12.408010051403857
2,13, 1,13, 0, 1, 0.00,60.00,Tuesday
7,-0.8333333333333334
118,12.203465517519894
2,13, 1,13, 0, 2, 0.00,60.00,Tuesday
7,-0.5833333333333334
118,12.075035458315233
2,13, 1,13, 0, 3, 0.00,60.00,Tuesday
7,-1.0
118,11.841448881474643
2,13, 1,13, 0, 4, 0.00,60.00,Tuesday
7,-1.5833333333333333
118,11.630563420240002
2,13, 1,13, 0, 5, 0.00,60.00,Tuesday
7,-2.5833333333333337
118,11.355655612139343
2,13, 1,13, 0, 6, 0.00,60.00,Tuesday
7,-1.8333333333333333
118,11.242848861501928
2,13, 1,13, 0, 7, 0.00,60.00,Tuesday
7,-2.1666666666666667
118,12.199060212824208
2,13, 1,13, 0, 8, 0.00,60.00,Tuesday
7,-1.8333333333333333
118,12.44761131029877
2,13, 1,13, 0, 9, 0.00,60.00,Tuesday
7,-0.4166666666666667
118,12.616610482872313
2,13, 1,13, 0,10, 0.00,60.00,Tuesday
7,0.5833333333333334
118,12.628623055959766
2,13, 1,13, 0,11, 0.00,60.00,Tuesday
7,1.5833333333333333
118,12.63301098627071
2,13, 1,13, 0,12, 0.00,60.00,Tuesday
7,3.1666666666666667
118,12.755908035354594
2,13, 1,13, 0,13, 0.00,60.00,Tuesday
7,3.4166666666666667
118,12.88363444201802
2,13, 1,13, 0,14, 0.00,60.00,Tuesday
7,1.8333333333333333
118,13.031063766325895
2,13, 1,13, 0,15, 0.00,60.00,Tuesday
7,1.5833333333333333
118,13.196714462519794
2,13, 1,13, 0,16, 0.00,60.00,Tuesday
7,2.0
118,13.409261258944403
2,13, 1,13, 0,17, 0.00,60.00,Tuesday
7,1.4166666666666668
118,13.54576140431102
2,13, 1,13, 0,18, 0.00,60.00,Tuesday
7,-1.3333333333333333
118,13.551371781569982
2,13, 1,13, 0,19, 0.00,60.00,Tuesday
7,-1.8333333333333333
118,13.587076265947788
2,13, 1,13, 0,20, 0.00,60.00,Tuesday
7,-2.75
118,13.644845856470802
2,13, 1,13, 0,21, 0.00,60.00,Tuesday
7,-4.0
118,13.567045259319626
2,13, 1,13, 0,22, 0.00,60.00,Tuesday
7,-4.583333333333333
118,13.47076075544009
2,13, 1,13, 0,23, 0.00,60.00,Tuesday
7,-6.166666666666667
118,12.100998424681903
2,13, 1,13, 0,24, 0.00,60.00,Tuesday
7,-6.416666666666667
118,11.226618429180134
2,14, 1,14, 0, 1, 0.00,60.00,Wednesday
7,-5.416666666666667
118,10.993504143751887
2,14, 1,14, 0, 2, 0.00,60.00,Wednesday
7,-4.416666666666667
118,10.859460571520787
2,14, 1,14, 0, 3, 0.00,60.00,Wednesday
7,-4.583333333333333
118,10.688247862378328
2,14, 1,14, 0, 4, 0.00,60.00,Wednesday
7,-5.583333333333333
118,10.391831229959868
2,14, 1,14, 0, 5, 0.00,60.00,Wednesday
7,-5.416666666666667
118,10.190469709058006
2,14, 1,14, 0, 6, 0.00,60.00,Wednesday
7,-5.0
118,10.104387037104202
2,14, 1,14, 0, 7, 0.00,60.00,Wednesday
7,-4.416666666666667
118,11.148073097061252
2,14, 1,14, 0, 8, 0.00,60.00,Wednesday
7,-2.25
118,11.514968915504506
2,14, 1,14, 0, 9, 0.00,60.00,Wednesday
7,1.9166666666666668
118,11.802351992526426
2,14, 1,14, 0,10, 0.00,60.00,Wednesday
7,5.75
118,12.019494091337869
2,14, 1,14, 0,11, 0.00,60.00,Wednesday
7,8.166666666666666
118,12.160176781615905
2,14, 1,14, 0,12, 0.00,60.00,Wednesday
7,9.583333333333334
118,12.367105461179909
2,14, 1,14, 0,13, 0.00,60.00,Wednesday
7,10.0
118,12.586384409415104
2,14, 1,14, 0,14, 0.00,60.00,Wednesday
7,10.583333333333334
118,12.887516235466189
2,14, 1,14, 0,15, 0.00,60.00,Wednesday
7,12.166666666666666
118,13.312462700022806
2,14, 1,14, 0,16, 0.00,60.00,Wednesday
7,12.416666666666666
118,13.675820456117299
2,14, 1,14, 0,17, 0.00,60.00,Wednesday
7,10.25
118,13.880234275330544
2,14, 1,14, 0,18, 0.00,60.00,Wednesday
7,6.083333333333333
118,13.957417797746075
2,14, 1,14, 0,19, 0.00,60.00,Wednesday
7,6.333333333333333
118,14.12099271993504
2,14, 1,14, 0,20, 0.00,60.00,Wednesday
7,7.416666666666667
118,14.37909172414403
2,14, 1,14, 0,21, 0.00,60.00,Wednesday
7,6.416666666666667
118,14.466275200611874
2,14, 1,14, 0,22, 0.00,60.00,Wednesday
7,4.25
118,14.432914622430403
2,14, 1,14, 0,23, 0.00,60.00,Wednesday
7,6.5
118,13.834559805328837
2,14, 1,14, 0,24, 0.00,60.00,Wednesday
7,8.299999999999999
118,13.895948489057565
2,15, 1,15, 0, 1, 0.00,60.00,Thursday
7,7.333333333333333
118,13.71144259202829
2,15, 1,15, 0, 2, 0.00,60.00,Thursday
7,6.416666666666667
118,13.52240226654878
2,15, 1,15, 0, 3, 0.00,60.00,Thursday
7,7.166666666666667
118,13.478623157162682
2,15, 1,15, 0, 4, 0.00,60.00,Thursday
7,7.416666666666667
118,13.522173552912733
2,15, 1,15, 0, 5, 0.00,60.00,Thursday
7,6.416666666666667
118,13.36732817560548
2,15, 1,15, 0, 6, 0.00,60.00,Thursday
7,3.0833333333333337
118,12.97420558344596
2,15, 1,15, 0, 7, 0.00,60.00,Thursday
7,1.5833333333333333
118,13.347270086926502
2,15, 1,15, 0, 8, 0.00,60.00,Thursday
7,1.4166666666666668
118,13.665961614833658
2,15, 1,15, 0, 9, 0.00,60.00,Thursday
7,4.5
118,13.876682849222119
2,15, 1,15, 0,10, 0.00,60.00,Thursday
7,8.166666666666666
118,14.144738171422171
2,15, 1,15, 0,11, 0.00,60.00,Thursday
7,11.333333333333334
118,14.282705510856145
2,15, 1,15, 0,12, 0.00,60.00,Thursday
7,14.166666666666666
118,14.488938143127669
2,15, 1,15, 0,13, 0.00,60.00,Thursday
7,13.833333333333334
118,14.724707241739664
2,15, 1,15, 0,14, 0.00,60.00,Thursday
7,12.416666666666666
118,14.999458652990839
2,15, 1,15, 0,15, 0.00,60.00,Thursday
7,11.416666666666666
118,15.310266674673379
2,15, 1,15, 0,16, 0.00,60.00,Thursday
7,11.583333333333334
118,15.58032807890065
2,15, 1,15, 0,17, 0.00,60.00,Thursday
7,10.25
118,15.747002390304632
2,15, 1,15, 0,18, 0.00,60.00,Thursday
7,8.416666666666666
118,15.795723685240802
2,15, 1,15, 0,19, 0.00,60.00,Thursday
7,8.0
118,15.895875259647959
2,15, 1,15, 0,20, 0.00,60.00,Thursday
7,6.833333333333333
118,15.938001148679656
2,15, 1,15, 0,21, 0.00,60.00,Thursday
7,6.583333333333333
118,15.912966164933052
2,15, 1,15, 0,22, 0.00,60.00,Thursday
7,4.666666666666667
118,15.820979306763534
2,15, 1,15, 0,23, 0.00,60.00,Thursday
7,2.4166666666666667
118,14.634739462584229
2,15, 1,15, 0,24, 0.00,60.00,Thursday
7,3.75
118,14.265232132585754
2,16, 1,16, 0, 1, 0.00,60.00,Friday
7,2.6666666666666667
118,14.036357766060812
2,16, 1,16, 0, 2, 0.00,60.00,Friday
7,1.0
118,13.578103369110778
2,16, 1,16, 0, 3, 0.00,60.00,Friday
7,-0.75
118,13.205463029079063
2,16, 1,16, 0, 4, 0.00,60.00,Friday
7,-2.5833333333333337
118,12.747979665583403
2,16, 1,16, 0, 5, 0.00,60.00,Friday
7,-1.8333333333333333
118,12.534803643469772
2,16, 1,16, 0, 6, 0.00,60.00,Friday
7,-0.4166666666666667
118,12.510088915473459
2,16, 1,16, 0, 7, 0.00,60.00,Friday
7,-0.5833333333333334
118,13.405550469183874
2,16, 1,16, 0, 8, 0.00,60.00,Friday
7,-1.0
118,13.612715793488407
2,16, 1,16, 0, 9, 0.00,60.00,Friday
7,1.9166666666666668
118,13.788948147272232
2,16, 1,16, 0,10, 0.00,60.00,Friday
7,5.75
118,14.04880936881822
2,16, 1,16, 0,11, 0.00,60.00,Friday
7,8.166666666666666
118,14.25091179599797
2,16, 1,16, 0,12, 0.00,60.00,Friday
7,9.583333333333334
118,14.334734329676252
2,16, 1,16, 0,13, 0.00,60.00,Friday
7,8.25
118,14.424465552468755
2,16, 1,16, 0,14, 0.00,60.00,Friday
7,9.333333333333334
118,14.804208006295136
2,16, 1,16, 0,15, 0.00,60.00,Friday
7,12.166666666666666
118,15.276201593927596
2,16, 1,16, 0,16, 0.00,60.00,Friday
7,11.833333333333334
118,15.557125522236696
2,16, 1,16, 0,17, 0.00,60.00,Friday
7,8.666666666666666
118,15.655824152592587
2,16, 1,16, 0,18, 0.00,60.00,Friday
7,7.0
118,15.759451927188266
2,16, 1,16, 0,19, 0.00,60.00,Friday
7,7.0
118,15.940234690057777
2,16, 1,16, 0,20, 0.00,60.00,Friday
7,5.25
118,15.999126080157609
2,16, 1,16, 0,21, 0.00,60.00,Friday
7,4.0
118,15.92701039433283
2,16, 1,16, 0,22, 0.00,60.00,Friday
7,-0.08333333333333326
118,15.717594144904128
2,16, 1,16, 0,23, 0.00,60.00,Friday
7,-1.25
118,14.275539917433596
2,16, 1,16, 0,24, 0.00,60.00,Friday
7,3.5
118,14.119014073750764
2,17, 1,17, 0, 1, 0.00,60.00,Saturday
7,4.25