Program Version,EnergyPlus, Version 9.4.0-998c4b761e, YMD=2021.01.27 21:25
1,5,Environment Title[],Latitude[deg],Longitude[deg],Time Zone[],Elevation[m]
2,8,Day of Simulation[],Month[],Day of Month[],DST Indicator[1=yes 0=no],Hour[],StartMinute[],EndMinute[],DayType
3,5,Cumulative Day of Simulation[],Month[],Day of Month[],DST Indicator[1=yes 0=no],DayType  ! When Daily Report Variables Requested
4,2,Cumulative Days of Simulation[],Month[]  ! When Monthly Report Variables Requested
5,1,Cumulative Days of Simulation[] ! When Run Period Report Variables Requested
6,1,Calendar Year of Simulation[] ! When Annual Report Variables Requested
7,1,Environment,Site Outdoor Air Drybulb Temperature [C] !Hourly
191,1,THERMAL ZONE 1,Zone Air Temperature [C] !Hourly
End of Data Dictionary
1,RUN PERIOD 1,  48.73,   2.40,   1.00,  96.00
2,1, 1, 1, 0, 1, 0.00,60.00,Tuesday
7,4.358333333333333
191,13.196291915570355
2,1, 1, 1, 0, 2, 0.00,60.00,Tuesday
7,3.716666666666667
191,12.797883413416189
2,1, 1, 1, 0, 3, 0.00,60.00,Tuesday
7,4.883333333333334
191,12.866066396750009
2,1, 1, 1, 0, 4, 0.00,60.00,Tuesday
7,5.6499999999999999
191,12.940725320810545
2,1, 1, 1, 0, 5, 0.00,60.00,Tuesday
7,6.016666666666666
191,12.973265178349055
2,1, 1, 1, 0, 6, 0.00,60.00,Tuesday
7,6.216666666666666
191,13.05965715368471
2,1, 1, 1, 0, 7, 0.00,60.00,Tuesday
7,6.241666666666667
191,13.656664572964523
2,1, 1, 1, 0, 8, 0.00,60.00,Tuesday
7,6.2
191,14.204827622493254
2,1, 1, 1, 0, 9, 0.00,60.00,Tuesday
7,6.141666666666667
191,15.3586576534238
2,1, 1, 1, 0,10, 0.00,60.00,Tuesday
7,6.1000000000000009
191,15.891916040016147
2,1, 1, 1, 0,11, 0.00,60.00,Tuesday
7,6.216666666666666
191,16.1463013426805
2,1, 1, 1, 0,12, 0.00,60.00,Tuesday
7,6.416666666666667
191,16.3160938507641
2,1, 1, 1, 0,13, 0.00,60.00,Tuesday
7,6.616666666666667
191,16.43807161523806
2,1, 1, 1, 0,14, 0.00,60.00,Tuesday
7,6.758333333333333
191,16.544098351248726
2,1, 1, 1, 0,15, 0.00,60.00,Tuesday
7,6.858333333333333
191,16.643382015864437
2,1, 1, 1, 0,16, 0.00,60.00,Tuesday
7,6.958333333333333
191,16.73042490372333
2,1, 1, 1, 0,17, 0.00,60.00,Tuesday
7,7.0
191,16.812831292550965
2,1, 1, 1, 0,18, 0.00,60.00,Tuesday
7,6.941666666666666
191,16.54932978101184
2,1, 1, 1, 0,19, 0.00,60.00,Tuesday
7,6.8999999999999999
191,16.109421770228008
2,1, 1, 1, 0,20, 0.00,60.00,Tuesday
7,6.783333333333334
191,15.916788602535144
2,1, 1, 1, 0,21, 0.00,60.00,Tuesday
7,6.583333333333333
191,15.508097260013644
2,1, 1, 1, 0,22, 0.00,60.00,Tuesday
7,6.383333333333333
191,15.294256422360613
2,1, 1, 1, 0,23, 0.00,60.00,Tuesday
7,6.3
191,14.18163183644929
2,1, 1, 1, 0,24, 0.00,60.00,Tuesday
7,6.358333333333333
191,13.605946756501359
2,2, 1, 2, 0, 1, 0.00,60.00,Wednesday
7,6.3999999999999999
191,13.41101039595481
2,2, 1, 2, 0, 2, 0.00,60.00,Wednesday
7,6.2250000000000009
191,13.276125774984373
2,2, 1, 2, 0, 3, 0.00,60.00,Wednesday
7,5.983333333333334
191,13.158366442966054
2,2, 1, 2, 0, 4, 0.00,60.00,Wednesday
7,5.7250000000000009
191,13.061982429311654
2,2, 1, 2, 0, 5, 0.00,60.00,Wednesday
7,5.191666666666666
191,12.944278599459559
2,2, 1, 2, 0, 6, 0.00,60.00,Wednesday
7,4.55
191,12.881058760940114
2,2, 1, 2, 0, 7, 0.00,60.00,Wednesday
7,3.891666666666666
191,13.4519863632822
2,2, 1, 2, 0, 8, 0.00,60.00,Wednesday
7,3.4250000000000004
191,14.098670154475086
2,2, 1, 2, 0, 9, 0.00,60.00,Wednesday
7,3.183333333333333
191,15.244033980137985
2,2, 1, 2, 0,10, 0.00,60.00,Wednesday
7,2.9250000000000004
191,15.741658965132708
2,2, 1, 2, 0,11, 0.00,60.00,Wednesday
7,3.033333333333333
191,15.945191741969666
2,2, 1, 2, 0,12, 0.00,60.00,Wednesday
7,3.4333333333333337
191,16.079361943808164
2,2, 1, 2, 0,13, 0.00,60.00,Wednesday
7,3.8333333333333337
191,16.15622812766036
2,2, 1, 2, 0,14, 0.00,60.00,Wednesday
7,4.291666666666667
191,16.209739515218609
2,2, 1, 2, 0,15, 0.00,60.00,Wednesday
7,4.791666666666667
191,16.269888689813845
2,2, 1, 2, 0,16, 0.00,60.00,Wednesday
7,4.766666666666667
191,16.31761232805014
2,2, 1, 2, 0,17, 0.00,60.00,Wednesday
7,4.483333333333333
191,16.339986339003159
2,2, 1, 2, 0,18, 0.00,60.00,Wednesday
7,4.2250000000000009
191,16.044998199017596
2,2, 1, 2, 0,19, 0.00,60.00,Wednesday
7,3.983333333333333
191,15.561292766968317
2,2, 1, 2, 0,20, 0.00,60.00,Wednesday
7,3.608333333333333
191,15.30572626631892
2,2, 1, 2, 0,21, 0.00,60.00,Wednesday
7,3.108333333333333
191,14.897995469146109
2,2, 1, 2, 0,22, 0.00,60.00,Wednesday
7,2.6083333333333336
191,14.620206664190152
2,2, 1, 2, 0,23, 0.00,60.00,Wednesday
7,2.341666666666667
191,13.166059365818617
2,2, 1, 2, 0,24, 0.00,60.00,Wednesday
7,2.2416666666666669
191,12.447544129719655
2,3, 1, 3, 0, 1, 0.00,60.00,Thursday
7,2.141666666666667
191,12.171434944416994
2,3, 1, 3, 0, 2, 0.00,60.00,Thursday
7,2.0416666666666667
191,11.997697003017214
2,3, 1, 3, 0, 3, 0.00,60.00,Thursday
7,1.9416666666666667
191,11.865632929234593
2,3, 1, 3, 0, 4, 0.00,60.00,Thursday
7,1.8416666666666668
191,11.760011147931836
2,3, 1, 3, 0, 5, 0.00,60.00,Thursday
7,1.8583333333333335
191,11.682288618534989
2,3, 1, 3, 0, 6, 0.00,60.00,Thursday
7,1.9583333333333333
191,11.71463515920427
2,3, 1, 3, 0, 7, 0.00,60.00,Thursday
7,1.825
191,12.425898695659555
2,3, 1, 3, 0, 8, 0.00,60.00,Thursday
7,1.875
191,13.130154956896478
2,3, 1, 3, 0, 9, 0.00,60.00,Thursday
7,2.1166666666666669
191,14.271193854457059
2,3, 1, 3, 0,10, 0.00,60.00,Thursday
7,2.375
191,14.791090001002088
2,3, 1, 3, 0,11, 0.00,60.00,Thursday
7,2.616666666666667
191,15.032117630159748
2,3, 1, 3, 0,12, 0.00,60.00,Thursday
7,2.8166666666666666
191,15.178776175322505
2,3, 1, 3, 0,13, 0.00,60.00,Thursday
7,3.016666666666667
191,15.280620677831366
2,3, 1, 3, 0,14, 0.00,60.00,Thursday
7,3.0416666666666667
191,15.356207729087231
2,3, 1, 3, 0,15, 0.00,60.00,Thursday
7,3.1166666666666669
191,15.419242487037437
2,3, 1, 3, 0,16, 0.00,60.00,Thursday
7,3.375
191,15.488546177999269
2,3, 1, 3, 0,17, 0.00,60.00,Thursday
7,3.5
191,15.553397705438279
2,3, 1, 3, 0,18, 0.00,60.00,Thursday
7,3.5583333333333337
191,15.3072150526692
2,3, 1, 3, 0,19, 0.00,60.00,Thursday
7,3.6
191,14.901572295916616
2,3, 1, 3, 0,20, 0.00,60.00,Thursday
7,3.5416666666666667
191,14.719773684628166
2,3, 1, 3, 0,21, 0.00,60.00,Thursday
7,3.4416666666666666
191,14.339677694805446
2,3, 1, 3, 0,22, 0.00,60.00,Thursday
7,3.341666666666667
191,14.143449049008295
2,3, 1, 3, 0,23, 0.00,60.00,Thursday
7,3.125
191,12.900341172872336
2,3, 1, 3, 0,24, 0.00,60.00,Thursday
7,2.8833333333333335
191,12.224345717648824
2,4, 1, 4, 0, 1, 0.00,60.00,Friday
7,2.625
191,11.954595298192033
2,4, 1, 4, 0, 2, 0.00,60.00,Friday
7,2.2083333333333337
191,11.76647049831677
2,4, 1, 4, 0, 3, 0.00,60.00,Friday
7,1.825
191,11.613753815158603
2,4, 1, 4, 0, 4, 0.00,60.00,Friday
7,1.5833333333333333
191,11.499430850218957
2,4, 1, 4, 0, 5, 0.00,60.00,Friday
7,1.3833333333333338
191,11.408474632822126
2,4, 1, 4, 0, 6, 0.00,60.00,Friday
7,1.1833333333333334
191,11.40809641119626
2,4, 1, 4, 0, 7, 0.00,60.00,Friday
7,0.9833333333333334
191,12.267118510956648
2,4, 1, 4, 0, 8, 0.00,60.00,Friday
7,0.9
191,12.89291813877312
2,4, 1, 4, 0, 9, 0.00,60.00,Friday
7,0.9583333333333334
191,14.017953203437126
2,4, 1, 4, 0,10, 0.00,60.00,Friday
7,1.175
191,14.525240469483207
2,4, 1, 4, 0,11, 0.00,60.00,Friday
7,1.6500000000000002
191,14.76151945988984
2,4, 1, 4, 0,12, 0.00,60.00,Friday
7,2.308333333333333
191,14.918966265768369
2,4, 1, 4, 0,13, 0.00,60.00,Friday
7,2.9499999999999999
191,15.039185440366302
2,4, 1, 4, 0,14, 0.00,60.00,Friday
7,3.0833333333333337
191,15.133471178058829
2,4, 1, 4, 0,15, 0.00,60.00,Friday
7,3.1749999999999995
191,15.215143235060645
2,4, 1, 4, 0,16, 0.00,60.00,Friday
7,3.475
191,15.302182343027866
2,4, 1, 4, 0,17, 0.00,60.00,Friday
7,3.483333333333333
191,15.382136557915628
2,4, 1, 4, 0,18, 0.00,60.00,Friday
7,3.341666666666667
191,15.15017820040257
2,4, 1, 4, 0,19, 0.00,60.00,Friday
7,3.183333333333333
191,14.756420519965304
2,4, 1, 4, 0,20, 0.00,60.00,Friday
7,3.0416666666666667
191,14.580475693126358
2,4, 1, 4, 0,21, 0.00,60.00,Friday
7,3.0
191,14.201366139801828
2,4, 1, 4, 0,22, 0.00,60.00,Friday
7,2.7666666666666677
191,13.99736137936028
2,4, 1, 4, 0,23, 0.00,60.00,Friday
7,2.4250000000000004
191,12.706241961893627
2,4, 1, 4, 0,24, 0.00,60.00,Friday
7,2.125
191,12.007697263897735
2,5, 1, 5, 0, 1, 0.00,60.00,Saturday
7,1.825
191,11.718577895149594
2,5, 1, 5, 0, 2, 0.00,60.00,Saturday
7,1.7583333333333336
191,11.550362531250997
2,5, 1, 5, 0, 3, 0.00,60.00,Saturday
7,1.8
191,11.453365928840869
2,5, 1, 5, 0, 4, 0.00,60.00,Saturday
7,1.8583333333333335
191,11.382539207629876
2,5, 1, 5, 0, 5, 0.00,60.00,Saturday
7,1.9000000000000002
191,11.332512943820062
2,5, 1, 5, 0, 6, 0.00,60.00,Saturday
7,1.9583333333333333
191,11.29310709676733
2,5, 1, 5, 0, 7, 0.00,60.00,Saturday
7,2.2916666666666667
191,12.1385018037492
2,5, 1, 5, 0, 8, 0.00,60.00,Saturday
7,2.5
191,12.473134886226705
2,5, 1, 5, 0, 9, 0.00,60.00,Saturday
7,2.441666666666667
191,13.169094548243772
2,5, 1, 5, 0,10, 0.00,60.00,Saturday
7,2.4
191,13.499795482963924
2,5, 1, 5, 0,11, 0.00,60.00,Saturday
7,3.158333333333333
191,13.67490023369327
2,5, 1, 5, 0,12, 0.00,60.00,Saturday
7,4.458333333333333
191,13.82572605995847
2,5, 1, 5, 0,13, 0.00,60.00,Saturday
7,5.758333333333333
191,13.96323139459171
2,5, 1, 5, 0,14, 0.00,60.00,Saturday
7,6.125
191,14.061284622176068
2,5, 1, 5, 0,15, 0.00,60.00,Saturday
7,6.0
191,13.615213493493022
2,5, 1, 5, 0,16, 0.00,60.00,Saturday
7,6.058333333333334
191,13.500907942009292
2,5, 1, 5, 0,17, 0.00,60.00,Saturday
7,6.041666666666667
191,13.486996503947348
2,5, 1, 5, 0,18, 0.00,60.00,Saturday
7,5.883333333333333
191,13.34526843095533
2,5, 1, 5, 0,19, 0.00,60.00,Saturday
7,5.683333333333334
191,12.741210087688709
2,5, 1, 5, 0,20, 0.00,60.00,Saturday
7,5.658333333333332
191,12.492474820353018
2,5, 1, 5, 0,21, 0.00,60.00,Saturday
7,5.7
191,12.468351217396219
2,5, 1, 5, 0,22, 0.00,60.00,Saturday
7,5.758333333333333
191,12.447007249385777
2,5, 1, 5, 0,23, 0.00,60.00,Saturday
7,5.916666666666667
191,12.442086791517973
2,5, 1, 5, 0,24, 0.00,60.00,Saturday
7,6.058333333333334
191,12.473283525915817
2,6, 1, 6, 0, 1, 0.00,60.00,Sunday
7,6.216666666666666
191,12.530258662448704
2,6, 1, 6, 0, 2, 0.00,60.00,Sunday
7,6.241666666666667
191,12.569757301873774
2,6, 1, 6, 0, 3, 0.00,60.00,Sunday
7,6.2
191,12.586465067140026
2,6, 1, 6, 0, 4, 0.00,60.00,Sunday
7,6.141666666666667
191,12.59640878429556
2,6, 1, 6, 0, 5, 0.00,60.00,Sunday
7,6.041666666666667
191,12.593127556309549
2,6, 1, 6, 0, 6, 0.00,60.00,Sunday
7,6.0
191,12.59167234577734
2,6, 1, 6, 0, 7, 0.00,60.00,Sunday
7,6.058333333333334
191,12.601373437149955
2,6, 1, 6, 0, 8, 0.00,60.00,Sunday
7,6.041666666666667
191,12.608300804656994
2,6, 1, 6, 0, 9, 0.00,60.00,Sunday
7,6.116666666666667
191,12.616994665588676
2,6, 1, 6, 0,10, 0.00,60.00,Sunday
7,6.375
191,12.655717178018618
2,6, 1, 6, 0,11, 0.00,60.00,Sunday
7,6.616666666666667
191,12.709312096493575
2,6, 1, 6, 0,12, 0.00,60.00,Sunday
7,6.875
191,12.771382564730394
2,6, 1, 6, 0,13, 0.00,60.00,Sunday
7,7.116666666666667
191,12.846799873584147
2,6, 1, 6, 0,14, 0.00,60.00,Sunday
7,7.2
191,12.913939276200383
2,6, 1, 6, 0,15, 0.00,60.00,Sunday
7,7.258333333333333
191,12.97644262817091
2,6, 1, 6, 0,16, 0.00,60.00,Sunday
7,7.3
191,13.045584650240159
2,6, 1, 6, 0,17, 0.00,60.00,Sunday
7,7.416666666666667
191,13.117215405353767
2,6, 1, 6, 0,18, 0.00,60.00,Sunday
7,7.558333333333334
191,13.19889469707041
2,6, 1, 6, 0,19, 0.00,60.00,Sunday
7,7.716666666666666
191,13.270192123584146
2,6, 1, 6, 0,20, 0.00,60.00,Sunday
7,7.683333333333334
191,13.312705351853316
2,6, 1, 6, 0,21, 0.00,60.00,Sunday
7,7.425
191,13.298906475508792
2,6, 1, 6, 0,22, 0.00,60.00,Sunday
7,7.183333333333334
191,13.255959812757653
2,6, 1, 6, 0,23, 0.00,60.00,Sunday
7,7.333333333333333
191,13.247247954779292
2,6, 1, 6, 0,24, 0.00,60.00,Sunday
7,7.791666666666667
191,13.323476555151738
2,7, 1, 7, 0, 1, 0.00,60.00,Monday
7,8.233333333333333
191,13.39624265102609
2,7, 1, 7, 0, 2, 0.00,60.00,Monday
7,8.575000000000001
191,13.4602537689425
2,7, 1, 7, 0, 3, 0.00,60.00,Monday
7,8.933333333333332
191,13.544096428235916
2,7, 1, 7, 0, 4, 0.00,60.00,Monday
7,9.275
191,13.622768974153218
2,7, 1, 7, 0, 5, 0.00,60.00,Monday
7,9.283333333333334
191,13.668819072916604
2,7, 1, 7, 0, 6, 0.00,60.00,Monday
7,9.083333333333334
191,13.766870794760039
2,7, 1, 7, 0, 7, 0.00,60.00,Monday
7,9.175000000000003
191,14.20837673770294
2,7, 1, 7, 0, 8, 0.00,60.00,Monday
7,9.299999999999999
191,14.756949721320688
2,7, 1, 7, 0, 9, 0.00,60.00,Monday
7,9.299999999999999
191,15.994247507892
2,7, 1, 7, 0,10, 0.00,60.00,Monday
7,9.299999999999999
191,16.623496001200996
2,7, 1, 7, 0,11, 0.00,60.00,Monday
7,9.241666666666668
191,16.95855790522723
2,7, 1, 7, 0,12, 0.00,60.00,Monday
7,9.608333333333333
191,17.221322082406489
2,7, 1, 7, 0,13, 0.00,60.00,Monday
7,10.366666666666668
191,17.479158440102709
2,7, 1, 7, 0,14, 0.00,60.00,Monday
7,10.816666666666669
191,17.730365802890959
2,7, 1, 7, 0,15, 0.00,60.00,Monday
7,11.075000000000001
191,17.96178715930401
2,7, 1, 7, 0,16, 0.00,60.00,Monday
7,11.316666666666665
191,18.17480064697239
2,7, 1, 7, 0,17, 0.00,60.00,Monday
7,11.166666666666666
191,18.34166829446014
2,7, 1, 7, 0,18, 0.00,60.00,Monday
7,10.475
191,18.150395374984304
2,7, 1, 7, 0,19, 0.00,60.00,Monday
7,9.575000000000001
191,17.74342668606572
2,7, 1, 7, 0,20, 0.00,60.00,Monday
7,8.85
191,17.54655874795178
2,7, 1, 7, 0,21, 0.00,60.00,Monday
7,8.25
191,17.066917441499976
2,7, 1, 7, 0,22, 0.00,60.00,Monday
7,7.766666666666667
191,16.7763515303071
2,7, 1, 7, 0,23, 0.00,60.00,Monday
7,7.658333333333334
191,15.507355445160151
2,7, 1, 7, 0,24, 0.00,60.00,Monday
7,7.758333333333333
191,14.83518448083389
2,8, 1, 8, 0, 1, 0.00,60.00,Tuesday
7,7.858333333333333
191,14.595836583778139
2,8, 1, 8, 0, 2, 0.00,60.00,Tuesday
7,8.541666666666666
191,14.516675504385939
2,8, 1, 8, 0, 3, 0.00,60.00,Tuesday
7,8.766666666666668
191,14.489386640836914
2,8, 1, 8, 0, 4, 0.00,60.00,Tuesday
7,8.424999999999999
191,14.366127768180429
2,8, 1, 8, 0, 5, 0.00,60.00,Tuesday
7,8.125
191,14.251161165918319
2,8, 1, 8, 0, 6, 0.00,60.00,Tuesday
7,7.825
191,14.231181126203327
2,8, 1, 8, 0, 7, 0.00,60.00,Tuesday
7,7.5249999999999999
191,14.779785414579714
2,8, 1, 8, 0, 8, 0.00,60.00,Tuesday
7,7.283333333333334
191,15.330467971081055
2,8, 1, 8, 0, 9, 0.00,60.00,Tuesday
7,7.083333333333333
191,16.515042943693087
2,8, 1, 8, 0,10, 0.00,60.00,Tuesday
7,6.941666666666666
191,17.063950365742938
2,8, 1, 8, 0,11, 0.00,60.00,Tuesday
7,7.716666666666669
191,17.314480910226565
2,8, 1, 8, 0,12, 0.00,60.00,Tuesday
7,9.058333333333334
191,17.505478841605556
2,8, 1, 8, 0,13, 0.00,60.00,Tuesday
7,10.416666666666666
191,17.662929174860524
2,8, 1, 8, 0,14, 0.00,60.00,Tuesday
7,12.166666666666666
191,17.831500176690576
2,8, 1, 8, 0,15, 0.00,60.00,Tuesday
7,12.591666666666667
191,17.996002781755356
2,8, 1, 8, 0,16, 0.00,60.00,Tuesday
7,11.891666666666666
191,18.09627815834408
2,8, 1, 8, 0,17, 0.00,60.00,Tuesday
7,11.191666666666669
191,18.175558194561459
2,8, 1, 8, 0,18, 0.00,60.00,Tuesday
7,10.491666666666668
191,17.92973107269788
2,8, 1, 8, 0,19, 0.00,60.00,Tuesday
7,9.791666666666666
191,17.48077330004004
2,8, 1, 8, 0,20, 0.00,60.00,Tuesday
7,9.208333333333334
191,17.252533306387389
2,8, 1, 8, 0,21, 0.00,60.00,Tuesday
7,8.708333333333334
191,16.777113308730859
2,8, 1, 8, 0,22, 0.00,60.00,Tuesday
7,8.208333333333334
191,16.50720446793677
2,8, 1, 8, 0,23, 0.00,60.00,Tuesday
7,7.883333333333333
191,15.308904026224113
2,8, 1, 8, 0,24, 0.00,60.00,Tuesday
7,7.625
191,14.620770730067429
2,9, 1, 9, 0, 1, 0.00,60.00,Wednesday
7,7.383333333333333
191,14.343057777408248
2,9, 1, 9, 0, 2, 0.00,60.00,Wednesday
7,7.416666666666667
191,14.186111393732638
2,9, 1, 9, 0, 3, 0.00,60.00,Wednesday
7,7.616666666666667
191,14.106721418496962
2,9, 1, 9, 0, 4, 0.00,60.00,Wednesday
7,7.816666666666666
191,14.05831034136287
2,9, 1, 9, 0, 5, 0.00,60.00,Wednesday
7,7.8999999999999999
191,14.013801015971401
2,9, 1, 9, 0, 6, 0.00,60.00,Wednesday
7,7.958333333333333
191,14.038970121138905
2,9, 1, 9, 0, 7, 0.00,60.00,Wednesday
7,7.941666666666666
191,14.54366224220783
2,9, 1, 9, 0, 8, 0.00,60.00,Wednesday
7,8.133333333333333
191,15.073854232243184
2,9, 1, 9, 0, 9, 0.00,60.00,Wednesday
7,8.591666666666669
191,16.283074905477858
2,9, 1, 9, 0,10, 0.00,60.00,Wednesday
7,9.033333333333334
191,16.844653520581898
2,9, 1, 9, 0,11, 0.00,60.00,Wednesday
7,9.083333333333334
191,17.069986330601578
2,9, 1, 9, 0,12, 0.00,60.00,Wednesday
7,9.116666666666668
191,17.220175224177976
2,9, 1, 9, 0,13, 0.00,60.00,Wednesday
7,9.316666666666667
191,17.35284971356265
2,9, 1, 9, 0,14, 0.00,60.00,Wednesday
7,9.575000000000001
191,17.44086284760364
2,9, 1, 9, 0,15, 0.00,60.00,Wednesday
7,9.875
191,17.56254079356471
2,9, 1, 9, 0,16, 0.00,60.00,Wednesday
7,10.175000000000003
191,17.658170171458044
2,9, 1, 9, 0,17, 0.00,60.00,Wednesday
7,10.358333333333335
191,17.74570329685853
2,9, 1, 9, 0,18, 0.00,60.00,Wednesday
7,10.4
191,17.506096975923133
2,9, 1, 9, 0,19, 0.00,60.00,Wednesday
7,10.458333333333334
191,17.068297229529294
2,9, 1, 9, 0,20, 0.00,60.00,Wednesday
7,10.441666666666667
191,16.870593179736223
2,9, 1, 9, 0,21, 0.00,60.00,Wednesday
7,10.283333333333334
191,16.456722440640289
2,9, 1, 9, 0,22, 0.00,60.00,Wednesday
7,10.141666666666668
191,16.24622462771497
2,9, 1, 9, 0,23, 0.00,60.00,Wednesday
7,9.983333333333333
191,15.311901138353767
2,9, 1, 9, 0,24, 0.00,60.00,Wednesday
7,9.783333333333334
191,14.804963902245364
2,10, 1,10, 0, 1, 0.00,60.00,Thursday
7,9.583333333333334
191,14.599294370120992
2,10, 1,10, 0, 2, 0.00,60.00,Thursday
7,9.5
191,14.483856380796653
2,10, 1,10, 0, 3, 0.00,60.00,Thursday
7,9.441666666666667
191,14.410610119325029
2,10, 1,10, 0, 4, 0.00,60.00,Thursday
7,9.4
191,14.349884358732889
2,10, 1,10, 0, 5, 0.00,60.00,Thursday
7,9.283333333333334
191,14.294229393649694
2,10, 1,10, 0, 6, 0.00,60.00,Thursday
7,9.025
191,14.309373043833978
2,10, 1,10, 0, 7, 0.00,60.00,Thursday
7,8.783333333333334
191,14.744237992189234
2,10, 1,10, 0, 8, 0.00,60.00,Thursday
7,8.758333333333333
191,15.23434456401492
2,10, 1,10, 0, 9, 0.00,60.00,Thursday
7,8.916666666666666
191,16.42849137991364
2,10, 1,10, 0,10, 0.00,60.00,Thursday
7,8.941666666666667
191,16.986862106264409
2,10, 1,10, 0,11, 0.00,60.00,Thursday
7,8.958333333333334
191,17.246358169543396
2,10, 1,10, 0,12, 0.00,60.00,Thursday
7,9.0
191,17.435602003844016
2,10, 1,10, 0,13, 0.00,60.00,Thursday
7,9.058333333333334
191,17.54095680884186
2,10, 1,10, 0,14, 0.00,60.00,Thursday
7,9.041666666666666
191,17.596702889005184
2,10, 1,10, 0,15, 0.00,60.00,Thursday
7,9.0
191,17.650635764487878
2,10, 1,10, 0,16, 0.00,60.00,Thursday
7,9.175000000000003
191,17.697672038350168
2,10, 1,10, 0,17, 0.00,60.00,Thursday
7,9.125
191,17.742140245302058
2,10, 1,10, 0,18, 0.00,60.00,Thursday
7,8.883333333333333
191,17.464223778837697
2,10, 1,10, 0,19, 0.00,60.00,Thursday
7,8.625
191,16.946647969982718
2,10, 1,10, 0,20, 0.00,60.00,Thursday
7,8.441666666666667
191,16.671887744599024
2,10, 1,10, 0,21, 0.00,60.00,Thursday
7,8.4
191,16.24936464377243
2,10, 1,10, 0,22, 0.00,60.00,Thursday
7,8.341666666666669
191,16.00570681845591
2,10, 1,10, 0,23, 0.00,60.00,Thursday
7,8.241666666666668
191,14.940268987446379
2,10, 1,10, 0,24, 0.00,60.00,Thursday
7,8.141666666666668
191,14.373309719978762
2,11, 1,11, 0, 1, 0.00,60.00,Friday
7,8.041666666666666
191,14.147693385230113
2,11, 1,11, 0, 2, 0.00,60.00,Friday
7,7.941666666666666
191,14.008044807148247
2,11, 1,11, 0, 3, 0.00,60.00,Friday
7,7.8999999999999999
191,13.93798200746202
2,11, 1,11, 0, 4, 0.00,60.00,Friday
7,7.841666666666666
191,13.875197539882317
2,11, 1,11, 0, 5, 0.00,60.00,Friday
7,7.741666666666667
191,13.813705207494643
2,11, 1,11, 0, 6, 0.00,60.00,Friday
7,7.7
191,13.85082170591911
2,11, 1,11, 0, 7, 0.00,60.00,Friday
7,7.641666666666667
191,14.38984557497598
2,11, 1,11, 0, 8, 0.00,60.00,Friday
7,7.25
191,14.918202229510089
2,11, 1,11, 0, 9, 0.00,60.00,Friday
7,7.116666666666667
191,16.076898144485218
2,11, 1,11, 0,10, 0.00,60.00,Friday
7,7.316666666666666
191,16.634909772646308
2,11, 1,11, 0,11, 0.00,60.00,Friday
7,7.516666666666667
191,16.895650026888615
2,11, 1,11, 0,12, 0.00,60.00,Friday
7,7.716666666666666
191,17.055120796793749
2,11, 1,11, 0,13, 0.00,60.00,Friday
7,7.916666666666667
191,17.14096886194208
2,11, 1,11, 0,14, 0.00,60.00,Friday
7,7.941666666666666
191,17.187289091769796
2,11, 1,11, 0,15, 0.00,60.00,Friday
7,7.783333333333334
191,17.269084282777646
2,11, 1,11, 0,16, 0.00,60.00,Friday
7,7.641666666666667
191,17.283909606607087
2,11, 1,11, 0,17, 0.00,60.00,Friday
7,7.7749999999999999
191,17.28941843596451
2,11, 1,11, 0,18, 0.00,60.00,Friday
7,8.075000000000001
191,17.01668392488623
2,11, 1,11, 0,19, 0.00,60.00,Friday
7,8.375
191,16.52115523292996
2,11, 1,11, 0,20, 0.00,60.00,Friday
7,8.616666666666668
191,16.290058934095076
2,11, 1,11, 0,21, 0.00,60.00,Friday
7,8.816666666666667
191,15.89895975755296
2,11, 1,11, 0,22, 0.00,60.00,Friday
7,9.016666666666668
191,15.696793026707047
2,11, 1,11, 0,23, 0.00,60.00,Friday
7,9.100000000000002
191,14.76161250746329
2,11, 1,11, 0,24, 0.00,60.00,Friday
7,9.158333333333332
191,14.321844156789546
2,12, 1,12, 0, 1, 0.00,60.00,Saturday
7,9.200000000000001
191,14.17773468455736
2,12, 1,12, 0, 2, 0.00,60.00,Saturday
7,9.141666666666668
191,14.101864129289183
2,12, 1,12, 0, 3, 0.00,60.00,Saturday
7,9.041666666666666
191,14.044927041211077
2,12, 1,12, 0, 4, 0.00,60.00,Saturday
7,8.066666666666667
191,13.914778142571736
2,12, 1,12, 0, 5, 0.00,60.00,Saturday
7,7.166666666666667
191,13.713007332680448
2,12, 1,12, 0, 6, 0.00,60.00,Saturday
7,6.883333333333333
191,13.607846059720444
2,12, 1,12, 0, 7, 0.00,60.00,Saturday
7,6.683333333333334
191,14.229237653224212
2,12, 1,12, 0, 8, 0.00,60.00,Saturday
7,6.25
191,14.471727861937538
2,12, 1,12, 0, 9, 0.00,60.00,Saturday
7,6.583333333333333
191,15.160710418620795
2,12, 1,12, 0,10, 0.00,60.00,Saturday
7,7.408333333333335
191,15.503992595731921
2,12, 1,12, 0,11, 0.00,60.00,Saturday
7,8.225
191,15.66885364444599
2,12, 1,12, 0,12, 0.00,60.00,Saturday
7,9.125
191,15.787248143517397
2,12, 1,12, 0,13, 0.00,60.00,Saturday
7,10.025
191,15.890296735094717
2,12, 1,12, 0,14, 0.00,60.00,Saturday
7,10.341666666666667
191,15.990101358141088
2,12, 1,12, 0,15, 0.00,60.00,Saturday
7,10.183333333333334
191,15.517760785916295
2,12, 1,12, 0,16, 0.00,60.00,Saturday
7,10.041666666666666
191,15.33401834790338
2,12, 1,12, 0,17, 0.00,60.00,Saturday
7,9.708333333333334
191,15.306003158457786
2,12, 1,12, 0,18, 0.00,60.00,Saturday
7,9.208333333333334
191,15.135576040842518
2,12, 1,12, 0,19, 0.00,60.00,Saturday
7,8.708333333333334
191,14.530245584192843
2,12, 1,12, 0,20, 0.00,60.00,Saturday
7,8.208333333333334
191,14.217575424150758
2,12, 1,12, 0,21, 0.00,60.00,Saturday
7,8.0
191,14.080365465439576
2,12, 1,12, 0,22, 0.00,60.00,Saturday
7,8.0
191,14.012372505465484
2,12, 1,12, 0,23, 0.00,60.00,Saturday
7,7.941666666666666
191,13.952757302420805
2,12, 1,12, 0,24, 0.00,60.00,Saturday
7,7.841666666666666
191,13.889343053618026
2,13, 1,13, 0, 1, 0.00,60.00,Sunday
7,7.741666666666667
191,13.827860904966008
2,13, 1,13, 0, 2, 0.00,60.00,Sunday
7,7.583333333333333
191,13.763128853600364
2,13, 1,13, 0, 3, 0.00,60.00,Sunday
7,7.325
191,13.685996493913637
2,13, 1,13, 0, 4, 0.00,60.00,Sunday
7,7.083333333333333
191,13.603898164243999
2,13, 1,13, 0, 5, 0.00,60.00,Sunday
7,7.116666666666667
191,13.553988855868426
2,13, 1,13, 0, 6, 0.00,60.00,Sunday
7,7.258333333333333
191,13.539990862346344
2,13, 1,13, 0, 7, 0.00,60.00,Sunday
7,7.416666666666667
191,13.532130335432923
2,13, 1,13, 0, 8, 0.00,60.00,Sunday
7,7.325
191,13.509321176153128
2,13, 1,13, 0, 9, 0.00,60.00,Sunday
7,7.083333333333333
191,13.436039940635878
2,13, 1,13, 0,10, 0.00,60.00,Sunday
7,7.0
191,13.371438343521503
2,13, 1,13, 0,11, 0.00,60.00,Sunday
7,7.116666666666667
191,13.364301988386507
2,13, 1,13, 0,12, 0.00,60.00,Sunday
7,7.258333333333333
191,13.398768865576758
2,13, 1,13, 0,13, 0.00,60.00,Sunday
7,7.416666666666667
191,13.422502451136645
2,13, 1,13, 0,14, 0.00,60.00,Sunday
7,7.733333333333334
191,13.474301767535664
2,13, 1,13, 0,15, 0.00,60.00,Sunday
7,8.075000000000001
191,13.550995056256055
2,13, 1,13, 0,16, 0.00,60.00,Sunday
7,8.433333333333332
191,13.634605510438155
2,13, 1,13, 0,17, 0.00,60.00,Sunday
7,8.833333333333334
191,13.73274862848307
2,13, 1,13, 0,18, 0.00,60.00,Sunday
7,8.416666666666666
191,13.755649270093612
2,13, 1,13, 0,19, 0.00,60.00,Sunday
7,8.116666666666668
191,13.71280881756328
2,13, 1,13, 0,20, 0.00,60.00,Sunday
7,7.558333333333333
191,13.674475914677421
2,13, 1,13, 0,21, 0.00,60.00,Sunday
7,6.458333333333333
191,13.50276934568663
2,13, 1,13, 0,22, 0.00,60.00,Sunday
7,5.766666666666667
191,13.330682229045897
2,13, 1,13, 0,23, 0.00,60.00,Sunday
7,5.716666666666666
191,13.247709541650734
2,13, 1,13, 0,24, 0.00,60.00,Sunday
7,5.916666666666667
191,13.227390891993908
2,14, 1,14, 0, 1, 0.00,60.00,Monday
7,5.533333333333335
191,13.151030467661054
2,14, 1,14, 0, 2, 0.00,60.00,Monday
7,5.666666666666667
191,13.069091250660402
2,14, 1,14, 0, 3, 0.00,60.00,Monday
7,5.825
191,13.07023704976414
2,14, 1,14, 0, 4, 0.00,60.00,Monday
7,5.5249999999999999
191,12.981457394376316
2,14, 1,14, 0, 5, 0.00,60.00,Monday
7,5.341666666666668
191,12.895031568936617
2,14, 1,14, 0, 6, 0.00,60.00,Monday
7,5.300000000000001
191,12.917957773761624
2,14, 1,14, 0, 7, 0.00,60.00,Monday
7,5.241666666666666
191,13.56286091984326
2,14, 1,14, 0, 8, 0.00,60.00,Monday
7,5.433333333333334
191,14.128422975827784
2,14, 1,14, 0, 9, 0.00,60.00,Monday
7,5.833333333333333
191,15.278686393388752
2,14, 1,14, 0,10, 0.00,60.00,Monday
7,6.233333333333333
191,15.839192393738804
2,14, 1,14, 0,11, 0.00,60.00,Monday
7,7.916666666666667
191,16.208153850036135
2,14, 1,14, 0,12, 0.00,60.00,Monday
7,9.875
191,16.57537660075236
2,14, 1,14, 0,13, 0.00,60.00,Monday
7,11.433333333333336
191,16.932560570838118
2,14, 1,14, 0,14, 0.00,60.00,Monday
7,12.391666666666666
191,17.295415561158174
2,14, 1,14, 0,15, 0.00,60.00,Monday
7,12.833333333333334
191,17.652813005521023
2,14, 1,14, 0,16, 0.00,60.00,Monday
7,13.291666666666666
191,18.002569900563647
2,14, 1,14, 0,17, 0.00,60.00,Monday
7,12.683333333333332
191,18.2911911271239
2,14, 1,14, 0,18, 0.00,60.00,Monday
7,11.341666666666667
191,18.184563816002567
2,14, 1,14, 0,19, 0.00,60.00,Monday
7,9.983333333333335
191,17.852070063922896
2,14, 1,14, 0,20, 0.00,60.00,Monday
7,9.166666666666666
191,17.716417275069295
2,14, 1,14, 0,21, 0.00,60.00,Monday
7,8.825000000000001
191,17.28533221843674
2,14, 1,14, 0,22, 0.00,60.00,Monday
7,8.466666666666667
191,17.019689465944724
2,14, 1,14, 0,23, 0.00,60.00,Monday
7,8.125
191,15.791204325434912
2,14, 1,14, 0,24, 0.00,60.00,Monday
7,7.6499999999999999
191,15.065044867355497
2,15, 1,15, 0, 1, 0.00,60.00,Tuesday
7,7.05
191,14.703490943423006
2,15, 1,15, 0, 2, 0.00,60.00,Tuesday
7,6.625
191,14.44138370723887
2,15, 1,15, 0, 3, 0.00,60.00,Tuesday
7,6.266666666666667
191,14.232043761829326
2,15, 1,15, 0, 4, 0.00,60.00,Tuesday
7,5.925
191,14.042153294898818
2,15, 1,15, 0, 5, 0.00,60.00,Tuesday
7,5.333333333333333
191,13.845413593123129
2,15, 1,15, 0, 6, 0.00,60.00,Tuesday
7,4.708333333333333
191,13.708613710672604
2,15, 1,15, 0, 7, 0.00,60.00,Tuesday
7,4.266666666666667
191,14.302553423529162
2,15, 1,15, 0, 8, 0.00,60.00,Tuesday
7,4.041666666666667
191,14.986767843990997
2,15, 1,15, 0, 9, 0.00,60.00,Tuesday
7,4.466666666666667
191,16.143044055856575
2,15, 1,15, 0,10, 0.00,60.00,Tuesday
7,5.325
191,16.70128873868312
2,15, 1,15, 0,11, 0.00,60.00,Tuesday
7,6.75
191,17.02264090499675
2,15, 1,15, 0,12, 0.00,60.00,Tuesday
7,8.608333333333333
191,17.304800320836028
2,15, 1,15, 0,13, 0.00,60.00,Tuesday
7,10.450000000000001
191,17.570961996089225
2,15, 1,15, 0,14, 0.00,60.00,Tuesday
7,11.666666666666666
191,17.84666961642498
2,15, 1,15, 0,15, 0.00,60.00,Tuesday
7,12.0
191,18.140119053665804
2,15, 1,15, 0,16, 0.00,60.00,Tuesday
7,12.0
191,18.419662753152627
2,15, 1,15, 0,17, 0.00,60.00,Tuesday
7,11.183333333333332
191,18.653512220467137
2,15, 1,15, 0,18, 0.00,60.00,Tuesday
7,9.841666666666667
191,18.508966307285065
2,15, 1,15, 0,19, 0.00,60.00,Tuesday
7,8.483333333333335
191,18.12620882497634
2,15, 1,15, 0,20, 0.00,60.00,Tuesday
7,7.491666666666667
191,17.927143172123704
2,15, 1,15, 0,21, 0.00,60.00,Tuesday
7,6.791666666666667
191,17.419813013846679
2,15, 1,15, 0,22, 0.00,60.00,Tuesday
7,6.091666666666666
191,17.075396402543125
2,15, 1,15, 0,23, 0.00,60.00,Tuesday
7,5.625
191,15.567525547181866
2,15, 1,15, 0,24, 0.00,60.00,Tuesday
7,5.383333333333333
191,14.732457398321472
2,16, 1,16, 0, 1, 0.00,60.00,Wednesday
7,5.125
191,14.359600950607588
2,16, 1,16, 0, 2, 0.00,60.00,Wednesday
7,4.416666666666667
191,14.038928807267155
2,16, 1,16, 0, 3, 0.00,60.00,Wednesday
7,3.8833333333333335
191,13.737634888876352
2,16, 1,16, 0, 4, 0.00,60.00,Wednesday
7,3.6833333333333337
191,13.51887562645777
2,16, 1,16, 0, 5, 0.00,60.00,Wednesday
7,3.483333333333333
191,13.325510796292145
2,16, 1,16, 0, 6, 0.00,60.00,Wednesday
7,3.283333333333333
191,13.226969213290616
2,16, 1,16, 0, 7, 0.00,60.00,Wednesday
7,3.0833333333333337
191,13.900007556039683
2,16, 1,16, 0, 8, 0.00,60.00,Wednesday
7,2.7083333333333337
191,14.602248711374877
2,16, 1,16, 0, 9, 0.00,60.00,Wednesday
7,2.2083333333333337
191,15.708034919431525
2,16, 1,16, 0,10, 0.00,60.00,Wednesday
7,2.8166666666666666
191,16.199463530256055
2,16, 1,16, 0,11, 0.00,60.00,Wednesday
7,4.041666666666667
191,16.487483804667457
2,16, 1,16, 0,12, 0.00,60.00,Wednesday
7,5.083333333333333
191,16.722242582235805
2,16, 1,16, 0,13, 0.00,60.00,Wednesday
7,6.141666666666667
191,16.951979712751919
2,16, 1,16, 0,14, 0.00,60.00,Wednesday
7,7.591666666666666
191,17.222791205705538
2,16, 1,16, 0,15, 0.00,60.00,Wednesday
7,9.291666666666666
191,17.548358904332447
2,16, 1,16, 0,16, 0.00,60.00,Wednesday
7,10.175000000000003
191,17.883391651968834
2,16, 1,16, 0,17, 0.00,60.00,Wednesday
7,9.483333333333335
191,18.133819510288285
2,16, 1,16, 0,18, 0.00,60.00,Wednesday
7,8.141666666666668
191,17.981459622882757