Program Version,EnergyPlus, Version 9.4.0-998c4b761e, YMD=2021.01.25 23:25
1,5,Environment Title[],Latitude[deg],Longitude[deg],Time Zone[],Elevation[m]
2,8,Day of Simulation[],Month[],Day of Month[],DST Indicator[1=yes 0=no],Hour[],StartMinute[],EndMinute[],DayType
3,5,Cumulative Day of Simulation[],Month[],Day of Month[],DST Indicator[1=yes 0=no],DayType  ! When Daily Report Variables Requested
4,2,Cumulative Days of Simulation[],Month[]  ! When Monthly Report Variables Requested
5,1,Cumulative Days of Simulation[] ! When Run Period Report Variables Requested
6,1,Calendar Year of Simulation[] ! When Annual Report Variables Requested
7,1,Environment,Site Outdoor Air Drybulb Temperature [C] !Hourly
191,1,THERMAL ZONE 1,Zone Air Temperature [C] !Hourly
End of Data Dictionary
1,RUN PERIOD 1,  39.74,-105.18,  -7.00,1829.00
2,1, 1, 1, 0, 1, 0.00,60.00,Tuesday
7,-4.666666666666667
191,10.686429282714398
2,1, 1, 1, 0, 2, 0.00,60.00,Tuesday
7,-3.0
191,10.760036721490627
2,1, 1, 1, 0, 3, 0.00,60.00,Tuesday
7,-3.5833333333333337
191,10.564348750411325
2,1, 1, 1, 0, 4, 0.00,60.00,Tuesday
7,-2.8333333333333337
191,10.457396884199357
2,1, 1, 1, 0, 5, 0.00,60.00,Tuesday
7,-2.0
191,10.486401618712325
2,1, 1, 1, 0, 6, 0.00,60.00,Tuesday
7,-1.4166666666666668
191,10.5510336929565
2,1, 1, 1, 0, 7, 0.00,60.00,Tuesday
7,-1.0
191,11.403454573388763
2,1, 1, 1, 0, 8, 0.00,60.00,Tuesday
7,-1.0
191,11.987722680147975
2,1, 1, 1, 0, 9, 0.00,60.00,Tuesday
7,-0.4166666666666667
191,13.225306507919177
2,1, 1, 1, 0,10, 0.00,60.00,Tuesday
7,1.1666666666666668
191,13.784572095573566
2,1, 1, 1, 0,11, 0.00,60.00,Tuesday
7,2.0
191,14.239549444168114
2,1, 1, 1, 0,12, 0.00,60.00,Tuesday
7,1.4166666666666668
191,14.55295896416866
2,1, 1, 1, 0,13, 0.00,60.00,Tuesday
7,2.1666666666666667
191,14.797560319851021
2,1, 1, 1, 0,14, 0.00,60.00,Tuesday
7,2.4166666666666667
191,15.075729275000486
2,1, 1, 1, 0,15, 0.00,60.00,Tuesday
7,1.4166666666666668
191,15.295924471837042
2,1, 1, 1, 0,16, 0.00,60.00,Tuesday
7,1.0
191,15.498201920109027
2,1, 1, 1, 0,17, 0.00,60.00,Tuesday
7,0.4166666666666667
191,15.673346947869396
2,1, 1, 1, 0,18, 0.00,60.00,Tuesday
7,-0.5833333333333334
191,15.405361953161096
2,1, 1, 1, 0,19, 0.00,60.00,Tuesday
7,-1.5833333333333333
191,14.942190178205415
2,1, 1, 1, 0,20, 0.00,60.00,Tuesday
7,-3.1666666666666667
191,14.679006993130649
2,1, 1, 1, 0,21, 0.00,60.00,Tuesday
7,-4.583333333333333
191,14.145905355677864
2,1, 1, 1, 0,22, 0.00,60.00,Tuesday
7,-5.583333333333333
191,13.832011927474293
2,1, 1, 1, 0,23, 0.00,60.00,Tuesday
7,-6.583333333333333
191,12.002777753663084
2,1, 1, 1, 0,24, 0.00,60.00,Tuesday
7,-7.0
191,10.873809059789386
2,2, 1, 2, 0, 1, 0.00,60.00,Wednesday
7,-8.166666666666666
191,10.36871116480977
2,2, 1, 2, 0, 2, 0.00,60.00,Wednesday
7,-9.583333333333334
191,9.893745221805734
2,2, 1, 2, 0, 3, 0.00,60.00,Wednesday
7,-10.0
191,9.556976885521595
2,2, 1, 2, 0, 4, 0.00,60.00,Wednesday
7,-10.583333333333334
191,9.275018562389631
2,2, 1, 2, 0, 5, 0.00,60.00,Wednesday
7,-11.583333333333334
191,8.93775333201112
2,2, 1, 2, 0, 6, 0.00,60.00,Wednesday
7,-13.75
191,8.572940996158272
2,2, 1, 2, 0, 7, 0.00,60.00,Wednesday
7,-14.416666666666666
191,9.795136877958207
2,2, 1, 2, 0, 8, 0.00,60.00,Wednesday
7,-13.416666666666666
191,10.67552341998456
2,2, 1, 2, 0, 9, 0.00,60.00,Wednesday
7,-11.833333333333334
191,11.836199697882494
2,2, 1, 2, 0,10, 0.00,60.00,Wednesday
7,-8.666666666666666
191,12.3259019373897
2,2, 1, 2, 0,11, 0.00,60.00,Wednesday
7,-6.416666666666667
191,12.564337222251332
2,2, 1, 2, 0,12, 0.00,60.00,Wednesday
7,-6.0
191,12.788370984929103
2,2, 1, 2, 0,13, 0.00,60.00,Wednesday
7,-5.416666666666667
191,12.942965783262375
2,2, 1, 2, 0,14, 0.00,60.00,Wednesday
7,-5.0
191,13.041475217949375
2,2, 1, 2, 0,15, 0.00,60.00,Wednesday
7,-5.583333333333333
191,13.300431814320051
2,2, 1, 2, 0,16, 0.00,60.00,Wednesday
7,-6.583333333333333
191,13.42630549086635
2,2, 1, 2, 0,17, 0.00,60.00,Wednesday
7,-7.583333333333333
191,13.54587075183347
2,2, 1, 2, 0,18, 0.00,60.00,Wednesday
7,-8.0
191,13.373828227371077
2,2, 1, 2, 0,19, 0.00,60.00,Wednesday
7,-8.583333333333334
191,13.019097211447282
2,2, 1, 2, 0,20, 0.00,60.00,Wednesday
7,-10.166666666666666
191,12.800935985690723
2,2, 1, 2, 0,21, 0.00,60.00,Wednesday
7,-11.0
191,12.322639330451159
2,2, 1, 2, 0,22, 0.00,60.00,Wednesday
7,-11.0
191,12.06571493673468
2,2, 1, 2, 0,23, 0.00,60.00,Wednesday
7,-11.583333333333334
191,10.146403261080076
2,2, 1, 2, 0,24, 0.00,60.00,Wednesday
7,-12.0
191,8.948786029438477
2,3, 1, 3, 0, 1, 0.00,60.00,Thursday
7,-12.583333333333334
191,8.455152981059455
2,3, 1, 3, 0, 2, 0.00,60.00,Thursday
7,-13.116666666666668
191,8.072488720892706
2,3, 1, 3, 0, 3, 0.00,60.00,Thursday
7,-13.433333333333332
191,7.790173649742953
2,3, 1, 3, 0, 4, 0.00,60.00,Thursday
7,-13.833333333333334
191,7.534345640508341
2,3, 1, 3, 0, 5, 0.00,60.00,Thursday
7,-14.0
191,7.322138735235197
2,3, 1, 3, 0, 6, 0.00,60.00,Thursday
7,-14.0
191,7.243246031781221
2,3, 1, 3, 0, 7, 0.00,60.00,Thursday
7,-14.0
191,8.52085882536264
2,3, 1, 3, 0, 8, 0.00,60.00,Thursday
7,-15.75
191,9.309525602115
2,3, 1, 3, 0, 9, 0.00,60.00,Thursday
7,-14.666666666666666
191,10.517703789968925
2,3, 1, 3, 0,10, 0.00,60.00,Thursday
7,-11.833333333333334
191,11.176816806829649
2,3, 1, 3, 0,11, 0.00,60.00,Thursday
7,-9.833333333333334
191,11.485386410742957
2,3, 1, 3, 0,12, 0.00,60.00,Thursday
7,-8.416666666666666
191,11.788719253358373
2,3, 1, 3, 0,13, 0.00,60.00,Thursday
7,-7.416666666666667
191,12.189170809945845
2,3, 1, 3, 0,14, 0.00,60.00,Thursday
7,-7.058333333333334
191,12.576444743359522
2,3, 1, 3, 0,15, 0.00,60.00,Thursday
7,-7.508333333333333
191,12.951286029696128
2,3, 1, 3, 0,16, 0.00,60.00,Thursday
7,-8.5
191,13.284643140223283
2,3, 1, 3, 0,17, 0.00,60.00,Thursday
7,-9.0
191,13.53420818880812
2,3, 1, 3, 0,18, 0.00,60.00,Thursday
7,-9.0
191,13.466166857837301
2,3, 1, 3, 0,19, 0.00,60.00,Thursday
7,-9.0
191,13.250093065329239
2,3, 1, 3, 0,20, 0.00,60.00,Thursday
7,-9.0
191,13.191102119869937
2,3, 1, 3, 0,21, 0.00,60.00,Thursday
7,-8.416666666666666
191,12.819041763418142
2,3, 1, 3, 0,22, 0.00,60.00,Thursday
7,-8.583333333333334
191,12.589446608649121
2,3, 1, 3, 0,23, 0.00,60.00,Thursday
7,-9.0
191,10.777020582676999
2,3, 1, 3, 0,24, 0.00,60.00,Thursday
7,-9.0
191,9.742839260284049
2,4, 1, 4, 0, 1, 0.00,60.00,Friday
7,-8.416666666666666
191,9.391916179332343
2,4, 1, 4, 0, 2, 0.00,60.00,Friday
7,-9.166666666666666
191,9.104283487131122
2,4, 1, 4, 0, 3, 0.00,60.00,Friday
7,-9.416666666666666
191,8.814887123355348
2,4, 1, 4, 0, 4, 0.00,60.00,Friday
7,-9.583333333333334
191,8.634832503673126
2,4, 1, 4, 0, 5, 0.00,60.00,Friday
7,-8.833333333333334
191,8.518756011976793
2,4, 1, 4, 0, 6, 0.00,60.00,Friday
7,-8.933333333333334
191,8.531086570073028
2,4, 1, 4, 0, 7, 0.00,60.00,Friday
7,-10.416666666666666
191,9.625017376318706
2,4, 1, 4, 0, 8, 0.00,60.00,Friday
7,-9.25
191,10.279692515191709
2,4, 1, 4, 0, 9, 0.00,60.00,Friday
7,-5.666666666666667
191,11.48438307124757
2,4, 1, 4, 0,10, 0.00,60.00,Friday
7,-2.25
191,12.156597360569949
2,4, 1, 4, 0,11, 0.00,60.00,Friday
7,-0.4166666666666667
191,12.504823081098009
2,4, 1, 4, 0,12, 0.00,60.00,Friday
7,0.5833333333333334
191,12.711808964524613
2,4, 1, 4, 0,13, 0.00,60.00,Friday
7,1.5833333333333333
191,12.968335536497852
2,4, 1, 4, 0,14, 0.00,60.00,Friday
7,2.5833333333333337
191,13.406527401439443
2,4, 1, 4, 0,15, 0.00,60.00,Friday
7,3.5833333333333337
191,13.774281912425913
2,4, 1, 4, 0,16, 0.00,60.00,Friday
7,2.8333333333333337
191,14.071420414997194
2,4, 1, 4, 0,17, 0.00,60.00,Friday
7,1.4166666666666668
191,14.317808877441664
2,4, 1, 4, 0,18, 0.00,60.00,Friday
7,1.0
191,14.260267271016348
2,4, 1, 4, 0,19, 0.00,60.00,Friday
7,1.0
191,14.089799815312942
2,4, 1, 4, 0,20, 0.00,60.00,Friday
7,-0.16666666666666664
191,14.078399104715095
2,4, 1, 4, 0,21, 0.00,60.00,Friday
7,-1.0
191,13.74595377229864
2,4, 1, 4, 0,22, 0.00,60.00,Friday
7,0.75
191,13.626920948006389
2,4, 1, 4, 0,23, 0.00,60.00,Friday
7,2.0
191,12.47944838892361
2,4, 1, 4, 0,24, 0.00,60.00,Friday
7,2.0
191,11.941484934364026
2,5, 1, 5, 0, 1, 0.00,60.00,Saturday
7,2.5833333333333337
191,11.777437887699412
2,5, 1, 5, 0, 2, 0.00,60.00,Saturday
7,3.0
191,11.735327234330092
2,5, 1, 5, 0, 3, 0.00,60.00,Saturday
7,3.5833333333333337
191,11.72779730541705
2,5, 1, 5, 0, 4, 0.00,60.00,Saturday
7,4.583333333333333
191,11.815011571913578
2,5, 1, 5, 0, 5, 0.00,60.00,Saturday
7,4.416666666666667
191,11.830561249444373
2,5, 1, 5, 0, 6, 0.00,60.00,Saturday
7,2.8333333333333337
191,11.654907118288542
2,5, 1, 5, 0, 7, 0.00,60.00,Saturday
7,2.0
191,12.180277235893135
2,5, 1, 5, 0, 8, 0.00,60.00,Saturday
7,2.5833333333333337
191,12.524752554183502
2,5, 1, 5, 0, 9, 0.00,60.00,Saturday
7,3.5833333333333337
191,13.289841204954554
2,5, 1, 5, 0,10, 0.00,60.00,Saturday
7,5.108333333333333
191,13.684137314030125
2,5, 1, 5, 0,11, 0.00,60.00,Saturday
7,6.541666666666667
191,14.071430836323968
2,5, 1, 5, 0,12, 0.00,60.00,Saturday
7,7.0
191,14.42168153085307
2,5, 1, 5, 0,13, 0.00,60.00,Saturday
7,7.0
191,14.702978541605042
2,5, 1, 5, 0,14, 0.00,60.00,Saturday
7,7.583333333333333
191,14.962267210565292
2,5, 1, 5, 0,15, 0.00,60.00,Saturday
7,8.0
191,14.771573753303598
2,5, 1, 5, 0,16, 0.00,60.00,Saturday
7,7.416666666666667
191,14.865956371329526
2,5, 1, 5, 0,17, 0.00,60.00,Saturday
7,6.416666666666667
191,14.971356247402453
2,5, 1, 5, 0,18, 0.00,60.00,Saturday
7,4.833333333333333
191,14.861379271663646
2,5, 1, 5, 0,19, 0.00,60.00,Saturday
7,3.4166666666666667
191,14.039133302778757
2,5, 1, 5, 0,20, 0.00,60.00,Saturday
7,2.4166666666666667
191,13.69631846325172
2,5, 1, 5, 0,21, 0.00,60.00,Saturday
7,3.1666666666666667
191,13.606530083763373
2,5, 1, 5, 0,22, 0.00,60.00,Saturday
7,1.0833333333333333
191,13.373927168210848
2,5, 1, 5, 0,23, 0.00,60.00,Saturday
7,0.16666666666666664
191,12.978090415411766
2,5, 1, 5, 0,24, 0.00,60.00,Saturday
7,1.0
191,12.929489433348316
2,6, 1, 6, 0, 1, 0.00,60.00,Sunday
7,1.5833333333333333
191,12.84606658523633
2,6, 1, 6, 0, 2, 0.00,60.00,Sunday
7,2.5833333333333337
191,12.840459624693965
2,6, 1, 6, 0, 3, 0.00,60.00,Sunday
7,4.75
191,12.964267701112492
2,6, 1, 6, 0, 4, 0.00,60.00,Sunday
7,4.833333333333333
191,13.01374162199295
2,6, 1, 6, 0, 5, 0.00,60.00,Sunday
7,1.0833333333333333
191,12.558531205038
2,6, 1, 6, 0, 6, 0.00,60.00,Sunday
7,1.9166666666666668
191,12.3354161358413
2,6, 1, 6, 0, 7, 0.00,60.00,Sunday
7,3.4166666666666667
191,12.534372217015445
2,6, 1, 6, 0, 8, 0.00,60.00,Sunday
7,1.8333333333333333
191,12.340779507509863
2,6, 1, 6, 0, 9, 0.00,60.00,Sunday
7,3.9166666666666667
191,12.438952372740687
2,6, 1, 6, 0,10, 0.00,60.00,Sunday
7,7.75
191,13.05644064018749
2,6, 1, 6, 0,11, 0.00,60.00,Sunday
7,9.583333333333334
191,13.527923222050246
2,6, 1, 6, 0,12, 0.00,60.00,Sunday
7,10.583333333333334
191,13.898581220416866
2,6, 1, 6, 0,13, 0.00,60.00,Sunday
7,11.583333333333334
191,14.30601111757222
2,6, 1, 6, 0,14, 0.00,60.00,Sunday
7,12.0
191,14.708811839597578
2,6, 1, 6, 0,15, 0.00,60.00,Sunday
7,12.0
191,15.075630340319002
2,6, 1, 6, 0,16, 0.00,60.00,Sunday
7,11.416666666666666
191,15.41034764310569
2,6, 1, 6, 0,17, 0.00,60.00,Sunday
7,6.916666666666667
191,15.277360989724486
2,6, 1, 6, 0,18, 0.00,60.00,Sunday
7,2.25
191,14.770908369495937
2,6, 1, 6, 0,19, 0.00,60.00,Sunday
7,-0.16666666666666664
191,14.490929112731026
2,6, 1, 6, 0,20, 0.00,60.00,Sunday
7,-2.1666666666666667
191,14.204057272653698
2,6, 1, 6, 0,21, 0.00,60.00,Sunday
7,-3.0
191,13.93433382780434
2,6, 1, 6, 0,22, 0.00,60.00,Sunday
7,-3.0
191,13.71581629977088
2,6, 1, 6, 0,23, 0.00,60.00,Sunday
7,-3.5833333333333337
191,13.426406869524746
2,6, 1, 6, 0,24, 0.00,60.00,Sunday
7,-4.0
191,13.098931377438149
2,7, 1, 7, 0, 1, 0.00,60.00,Monday
7,-4.0
191,12.833561657750707
2,7, 1, 7, 0, 2, 0.00,60.00,Monday
7,-4.583333333333333
191,12.531766133795295
2,7, 1, 7, 0, 3, 0.00,60.00,Monday
7,-4.416666666666667
191,12.256085106995022
2,7, 1, 7, 0, 4, 0.00,60.00,Monday
7,-2.25
191,12.233770632572373
2,7, 1, 7, 0, 5, 0.00,60.00,Monday
7,-1.0
191,12.262485648872003
2,7, 1, 7, 0, 6, 0.00,60.00,Monday
7,0.16666666666666664
191,12.303572508630176
2,7, 1, 7, 0, 7, 0.00,60.00,Monday
7,2.1666666666666667
191,13.225835357906853
2,7, 1, 7, 0, 8, 0.00,60.00,Monday
7,1.8333333333333333
191,13.814791378977782
2,7, 1, 7, 0, 9, 0.00,60.00,Monday
7,1.5833333333333333
191,15.051081876752818
2,7, 1, 7, 0,10, 0.00,60.00,Monday
7,4.916666666666667
191,15.754220668233828
2,7, 1, 7, 0,11, 0.00,60.00,Monday
7,8.75
191,16.31373210009541
2,7, 1, 7, 0,12, 0.00,60.00,Monday
7,11.166666666666666
191,16.845803253696205
2,7, 1, 7, 0,13, 0.00,60.00,Monday
7,12.583333333333334
191,17.405447277424647
2,7, 1, 7, 0,14, 0.00,60.00,Monday
7,13.0
191,17.99766042957934
2,7, 1, 7, 0,15, 0.00,60.00,Monday
7,13.0
191,18.574425648381064
2,7, 1, 7, 0,16, 0.00,60.00,Monday
7,9.5
191,19.014530989176494
2,7, 1, 7, 0,17, 0.00,60.00,Monday
7,5.25
191,19.245827950592007
2,7, 1, 7, 0,18, 0.00,60.00,Monday
7,2.8333333333333337
191,19.066701398686374
2,7, 1, 7, 0,19, 0.00,60.00,Monday
7,0.25
191,18.633979611987845
2,7, 1, 7, 0,20, 0.00,60.00,Monday
7,-1.5833333333333333
191,18.361543066724118
2,7, 1, 7, 0,21, 0.00,60.00,Monday
7,-1.4166666666666668
191,17.737332970139645
2,7, 1, 7, 0,22, 0.00,60.00,Monday
7,-1.0
191,17.32524710878303
2,7, 1, 7, 0,23, 0.00,60.00,Monday
7,-1.0
191,15.497853445070538
2,7, 1, 7, 0,24, 0.00,60.00,Monday
7,-1.5833333333333333
191,14.324437983189164
2,8, 1, 8, 0, 1, 0.00,60.00,Tuesday
7,-1.4166666666666668
191,13.788355129230274
2,8, 1, 8, 0, 2, 0.00,60.00,Tuesday
7,-1.5833333333333333
191,13.415629251964625
2,8, 1, 8, 0, 3, 0.00,60.00,Tuesday
7,-1.4166666666666668
191,13.089789150149836
2,8, 1, 8, 0, 4, 0.00,60.00,Tuesday
7,-1.0
191,12.889763393258255
2,8, 1, 8, 0, 5, 0.00,60.00,Tuesday
7,-1.5833333333333333
191,12.615527866711757
2,8, 1, 8, 0, 6, 0.00,60.00,Tuesday
7,-2.0
191,12.420744191281493
2,8, 1, 8, 0, 7, 0.00,60.00,Tuesday
7,-2.0
191,13.35951097194222
2,8, 1, 8, 0, 8, 0.00,60.00,Tuesday
7,-2.0
191,13.944250969474164
2,8, 1, 8, 0, 9, 0.00,60.00,Tuesday
7,-2.5833333333333337
191,15.145089004631159
2,8, 1, 8, 0,10, 0.00,60.00,Tuesday
7,-2.4166666666666667
191,15.568868572946857
2,8, 1, 8, 0,11, 0.00,60.00,Tuesday
7,-2.0
191,15.713180319140447
2,8, 1, 8, 0,12, 0.00,60.00,Tuesday
7,-2.0
191,15.819318094637666
2,8, 1, 8, 0,13, 0.00,60.00,Tuesday
7,-1.4166666666666668
191,15.93288728424188
2,8, 1, 8, 0,14, 0.00,60.00,Tuesday
7,0.16666666666666664
191,16.119797978586197
2,8, 1, 8, 0,15, 0.00,60.00,Tuesday
7,1.0
191,16.355711002745726
2,8, 1, 8, 0,16, 0.00,60.00,Tuesday
7,0.4166666666666667
191,16.50425424956482
2,8, 1, 8, 0,17, 0.00,60.00,Tuesday
7,-1.75
191,16.528685546536037
2,8, 1, 8, 0,18, 0.00,60.00,Tuesday
7,-4.166666666666667
191,16.14831910188396
2,8, 1, 8, 0,19, 0.00,60.00,Tuesday
7,-5.583333333333333
191,15.665104095895187
2,8, 1, 8, 0,20, 0.00,60.00,Tuesday
7,-6.0
191,15.444900787649111
2,8, 1, 8, 0,21, 0.00,60.00,Tuesday
7,-6.0
191,14.938502358745785
2,8, 1, 8, 0,22, 0.00,60.00,Tuesday
7,-4.833333333333333
191,14.640463584407579
2,8, 1, 8, 0,23, 0.00,60.00,Tuesday
7,-4.583333333333333
191,12.893770894043515
2,8, 1, 8, 0,24, 0.00,60.00,Tuesday
7,-4.416666666666667
191,11.84367872455588
2,9, 1, 9, 0, 1, 0.00,60.00,Wednesday
7,-5.166666666666667
191,11.381866852499485
2,9, 1, 9, 0, 2, 0.00,60.00,Wednesday
7,-4.25
191,11.100888229964518
2,9, 1, 9, 0, 3, 0.00,60.00,Wednesday
7,-2.4166666666666667
191,11.125577795583398
2,9, 1, 9, 0, 4, 0.00,60.00,Wednesday
7,-2.0
191,11.050651180000905
2,9, 1, 9, 0, 5, 0.00,60.00,Wednesday
7,-2.0
191,10.929987561422096
2,9, 1, 9, 0, 6, 0.00,60.00,Wednesday
7,-3.1666666666666667
191,10.799125502245781
2,9, 1, 9, 0, 7, 0.00,60.00,Wednesday
7,-5.166666666666667
191,11.650259900591161
2,9, 1, 9, 0, 8, 0.00,60.00,Wednesday
7,-4.25
191,12.251782695822362
2,9, 1, 9, 0, 9, 0.00,60.00,Wednesday
7,-0.6666666666666666
191,13.587202433310268
2,9, 1, 9, 0,10, 0.00,60.00,Wednesday
7,2.75
191,14.318301995645939
2,9, 1, 9, 0,11, 0.00,60.00,Wednesday
7,5.166666666666667
191,14.811150658141939
2,9, 1, 9, 0,12, 0.00,60.00,Wednesday
7,7.166666666666667
191,15.285362472673242
2,9, 1, 9, 0,13, 0.00,60.00,Wednesday
7,8.0
191,15.801735429448606
2,9, 1, 9, 0,14, 0.00,60.00,Wednesday
7,8.0
191,16.334590984758195
2,9, 1, 9, 0,15, 0.00,60.00,Wednesday
7,8.583333333333334
191,16.90102869169276
2,9, 1, 9, 0,16, 0.00,60.00,Wednesday
7,7.833333333333333
191,17.432879985173135
2,9, 1, 9, 0,17, 0.00,60.00,Wednesday
7,4.666666666666667
191,17.75682016200758
2,9, 1, 9, 0,18, 0.00,60.00,Wednesday
7,2.4166666666666667
191,17.57558608891529
2,9, 1, 9, 0,19, 0.00,60.00,Wednesday
7,1.4750000000000004
191,17.22637350324429
2,9, 1, 9, 0,20, 0.00,60.00,Wednesday
7,-0.0666666666666666
191,17.056449596486368
2,9, 1, 9, 0,21, 0.00,60.00,Wednesday
7,0.32499999999999998
191,16.586506221616735
2,9, 1, 9, 0,22, 0.00,60.00,Wednesday
7,1.2
191,16.34277484554842
2,9, 1, 9, 0,23, 0.00,60.00,Wednesday
7,1.7833333333333333
191,15.021131683872932
2,9, 1, 9, 0,24, 0.00,60.00,Wednesday
7,1.675
191,14.044879746652106
2,10, 1,10, 0, 1, 0.00,60.00,Thursday
7,1.3
191,13.607025112265765
2,10, 1,10, 0, 2, 0.00,60.00,Thursday
7,3.108333333333333
191,13.49055169288823
2,10, 1,10, 0, 3, 0.00,60.00,Thursday
7,4.3999999999999999
191,13.52417604805761
2,10, 1,10, 0, 4, 0.00,60.00,Thursday
7,3.233333333333333
191,13.310195103203013
2,10, 1,10, 0, 5, 0.00,60.00,Thursday
7,4.208333333333333
191,13.204811713882032
2,10, 1,10, 0, 6, 0.00,60.00,Thursday
7,4.858333333333334
191,13.35512118085181
2,10, 1,10, 0, 7, 0.00,60.00,Thursday
7,3.9333333333333337
191,13.892566324883618
2,10, 1,10, 0, 8, 0.00,60.00,Thursday
7,4.766666666666667
191,14.455026583088952
2,10, 1,10, 0, 9, 0.00,60.00,Thursday
7,6.766666666666667
191,15.801893577987462
2,10, 1,10, 0,10, 0.00,60.00,Thursday
7,9.408333333333332
191,16.59579161613085
2,10, 1,10, 0,11, 0.00,60.00,Thursday
7,10.700000000000001
191,17.125255973916557
2,10, 1,10, 0,12, 0.00,60.00,Thursday
7,10.233333333333333
191,17.574410235641407
2,10, 1,10, 0,13, 0.00,60.00,Thursday
7,9.258333333333333
191,18.031446171460105
2,10, 1,10, 0,14, 0.00,60.00,Thursday
7,6.466666666666666
191,18.441582177348129
2,10, 1,10, 0,15, 0.00,60.00,Thursday
7,4.2749999999999999
191,18.799149484422448
2,10, 1,10, 0,16, 0.00,60.00,Thursday
7,3.3166666666666666
191,19.13320170137653
2,10, 1,10, 0,17, 0.00,60.00,Thursday
7,2.375
191,19.361742732777797
2,10, 1,10, 0,18, 0.00,60.00,Thursday
7,1.4166666666666668
191,19.143889030283146
2,10, 1,10, 0,19, 0.00,60.00,Thursday
7,1.0
191,18.697122822799135
2,10, 1,10, 0,20, 0.00,60.00,Thursday
7,2.1666666666666667
191,18.485858235071225
2,10, 1,10, 0,21, 0.00,60.00,Thursday
7,3.0
191,17.94320239901963
2,10, 1,10, 0,22, 0.00,60.00,Thursday
7,3.5833333333333337
191,17.536970686120485
2,10, 1,10, 0,23, 0.00,60.00,Thursday
7,4.0
191,16.126528252388679
2,10, 1,10, 0,24, 0.00,60.00,Thursday
7,5.166666666666667
191,15.21858113536215
2,11, 1,11, 0, 1, 0.00,60.00,Friday
7,4.833333333333333
191,14.860517674091616
2,11, 1,11, 0, 2, 0.00,60.00,Friday
7,2.8333333333333337
191,14.350107904409477
2,11, 1,11, 0, 3, 0.00,60.00,Friday
7,4.333333333333333
191,14.149958884041615
2,11, 1,11, 0, 4, 0.00,60.00,Friday
7,4.25
191,14.073195964923157
2,11, 1,11, 0, 5, 0.00,60.00,Friday
7,2.4166666666666667
191,13.661046876855496
2,11, 1,11, 0, 6, 0.00,60.00,Friday
7,0.8333333333333334
191,13.385466507831824
2,11, 1,11, 0, 7, 0.00,60.00,Friday
7,4.083333333333333
191,14.238370612870348
2,11, 1,11, 0, 8, 0.00,60.00,Friday
7,4.666666666666667
191,14.907966643302439
2,11, 1,11, 0, 9, 0.00,60.00,Friday
7,5.916666666666667
191,16.151710540851096
2,11, 1,11, 0,10, 0.00,60.00,Friday
7,10.333333333333334
191,16.898085449445636
2,11, 1,11, 0,11, 0.00,60.00,Friday
7,13.166666666666666
191,17.361456882076344
2,11, 1,11, 0,12, 0.00,60.00,Friday
7,15.166666666666666
191,17.714579467929235
2,11, 1,11, 0,13, 0.00,60.00,Friday
7,14.833333333333334
191,18.046255280710544
2,11, 1,11, 0,14, 0.00,60.00,Friday
7,14.583333333333334
191,18.372800139568576
2,11, 1,11, 0,15, 0.00,60.00,Friday
7,16.166666666666669
191,18.763985843996168
2,11, 1,11, 0,16, 0.00,60.00,Friday
7,15.833333333333334
191,19.117667325951176
2,11, 1,11, 0,17, 0.00,60.00,Friday
7,11.5
191,19.283735920779287
2,11, 1,11, 0,18, 0.00,60.00,Friday
7,8.416666666666666
191,19.011019652631224
2,11, 1,11, 0,19, 0.00,60.00,Friday
7,8.0
191,18.58700390443236
2,11, 1,11, 0,20, 0.00,60.00,Friday
7,6.833333333333333
191,18.37797045058113
2,11, 1,11, 0,21, 0.00,60.00,Friday
7,6.583333333333333
191,17.805036051424616
2,11, 1,11, 0,22, 0.00,60.00,Friday
7,7.0
191,17.485102931076825
2,11, 1,11, 0,23, 0.00,60.00,Friday
7,5.833333333333333
191,16.004201115221645
2,11, 1,11, 0,24, 0.00,60.00,Friday
7,5.583333333333333
191,15.18047981904882
2,12, 1,12, 0, 1, 0.00,60.00,Saturday
7,4.25
191,14.754620389046423
2,12, 1,12, 0, 2, 0.00,60.00,Saturday
7,3.0
191,14.293083881845057
2,12, 1,12, 0, 3, 0.00,60.00,Saturday
7,3.5833333333333337
191,14.100240392572502
2,12, 1,12, 0, 4, 0.00,60.00,Saturday
7,1.6666666666666668
191,13.780346055104147
2,12, 1,12, 0, 5, 0.00,60.00,Saturday
7,0.5833333333333334
191,13.364585452883866
2,12, 1,12, 0, 6, 0.00,60.00,Saturday
7,1.5833333333333333
191,13.263337699373049
2,12, 1,12, 0, 7, 0.00,60.00,Saturday
7,2.5833333333333337
191,14.200906880988036
2,12, 1,12, 0, 8, 0.00,60.00,Saturday
7,0.6666666666666666
191,14.402824862580767
2,12, 1,12, 0, 9, 0.00,60.00,Saturday
7,3.0833333333333337
191,15.042162828836807
2,12, 1,12, 0,10, 0.00,60.00,Saturday
7,6.583333333333333
191,15.474065753841212
2,12, 1,12, 0,11, 0.00,60.00,Saturday
7,7.0
191,15.58591366296398
2,12, 1,12, 0,12, 0.00,60.00,Saturday
7,7.058333333333334
191,15.64940043797386
2,12, 1,12, 0,13, 0.00,60.00,Saturday
7,7.041666666666667
191,15.742528602910504
2,12, 1,12, 0,14, 0.00,60.00,Saturday
7,7.0
191,15.971466842289252
2,12, 1,12, 0,15, 0.00,60.00,Saturday
7,7.0
191,15.601278013078128
2,12, 1,12, 0,16, 0.00,60.00,Saturday
7,5.25
191,15.391327650318625
2,12, 1,12, 0,17, 0.00,60.00,Saturday
7,2.8333333333333337
191,15.304719369423014
2,12, 1,12, 0,18, 0.00,60.00,Saturday
7,0.8333333333333334
191,15.06163433314044
2,12, 1,12, 0,19, 0.00,60.00,Saturday
7,-1.1666666666666668
191,13.770777322569139
2,12, 1,12, 0,20, 0.00,60.00,Saturday
7,-2.5833333333333337
191,13.13548014588811
2,12, 1,12, 0,21, 0.00,60.00,Saturday
7,-2.4166666666666667
191,12.866440798207187
2,12, 1,12, 0,22, 0.00,60.00,Saturday
7,-2.0
191,12.706998847356659
2,12, 1,12, 0,23, 0.00,60.00,Saturday
7,-2.0
191,12.503935797450652
2,12, 1,12, 0,24, 0.00,60.00,Saturday
7,-2.0
191,12.302930116504762
2,13, 1,13, 0, 1, 0.00,60.00,Sunday
7,-0.8333333333333334
191,12.211605331471129
2,13, 1,13, 0, 2, 0.00,60.00,Sunday
7,-0.5833333333333334
191,12.144681104783473
2,13, 1,13, 0, 3, 0.00,60.00,Sunday
7,-1.0
191,11.942025384214146
2,13, 1,13, 0, 4, 0.00,60.00,Sunday
7,-1.5833333333333333
191,11.749523438789092
2,13, 1,13, 0, 5, 0.00,60.00,Sunday
7,-2.5833333333333337
191,11.485800705371015
2,13, 1,13, 0, 6, 0.00,60.00,Sunday
7,-1.8333333333333333
191,11.379718072130184
2,13, 1,13, 0, 7, 0.00,60.00,Sunday
7,-2.1666666666666667
191,11.30646163157828
2,13, 1,13, 0, 8, 0.00,60.00,Sunday
7,-1.8333333333333333
191,11.179833011191202
2,13, 1,13, 0, 9, 0.00,60.00,Sunday
7,-0.4166666666666667
191,11.372101397764274
2,13, 1,13, 0,10, 0.00,60.00,Sunday
7,0.5833333333333334
191,11.428477840925304
2,13, 1,13, 0,11, 0.00,60.00,Sunday
7,1.5833333333333333
191,11.510055857226496
2,13, 1,13, 0,12, 0.00,60.00,Sunday
7,3.1666666666666667
191,11.756976469505539
2,13, 1,13, 0,13, 0.00,60.00,Sunday
7,3.4166666666666667
191,11.948739619375237
2,13, 1,13, 0,14, 0.00,60.00,Sunday
7,1.8333333333333333
191,11.956045226503159
2,13, 1,13, 0,15, 0.00,60.00,Sunday
7,1.5833333333333333
191,12.005339149869514
2,13, 1,13, 0,16, 0.00,60.00,Sunday
7,2.0
191,12.218920343602017
2,13, 1,13, 0,17, 0.00,60.00,Sunday
7,1.4166666666666668
191,12.283815035641633
2,13, 1,13, 0,18, 0.00,60.00,Sunday
7,-1.3333333333333333
191,12.069180594560786
2,13, 1,13, 0,19, 0.00,60.00,Sunday
7,-1.8333333333333333
191,11.949331054217426
2,13, 1,13, 0,20, 0.00,60.00,Sunday
7,-2.75
191,11.944500113016039
2,13, 1,13, 0,21, 0.00,60.00,Sunday
7,-4.0
191,11.704207444560089
2,13, 1,13, 0,22, 0.00,60.00,Sunday
7,-4.583333333333333
191,11.534005625856985
2,13, 1,13, 0,23, 0.00,60.00,Sunday
7,-6.166666666666667
191,11.223878332151548
2,13, 1,13, 0,24, 0.00,60.00,Sunday
7,-6.416666666666667
191,10.96360144880073
2,14, 1,14, 0, 1, 0.00,60.00,Monday
7,-5.416666666666667
191,10.888511991057387
2,14, 1,14, 0, 2, 0.00,60.00,Monday
7,-4.416666666666667
191,10.838939999119665
2,14, 1,14, 0, 3, 0.00,60.00,Monday
7,-4.583333333333333
191,10.7152546002483
2,14, 1,14, 0, 4, 0.00,60.00,Monday
7,-5.583333333333333
191,10.448855186648429
2,14, 1,14, 0, 5, 0.00,60.00,Monday
7,-5.416666666666667
191,10.266876766507263
2,14, 1,14, 0, 6, 0.00,60.00,Monday
7,-5.0
191,10.27748655116645
2,14, 1,14, 0, 7, 0.00,60.00,Monday
7,-4.416666666666667
191,11.35684144415179
2,14, 1,14, 0, 8, 0.00,60.00,Monday
7,-2.25
191,12.043724670322995
2,14, 1,14, 0, 9, 0.00,60.00,Monday
7,1.9166666666666668
191,13.374097344987052
2,14, 1,14, 0,10, 0.00,60.00,Monday
7,5.75
191,14.042924530116759
2,14, 1,14, 0,11, 0.00,60.00,Monday
7,8.166666666666666
191,14.405081109872432
2,14, 1,14, 0,12, 0.00,60.00,Monday
7,9.583333333333334
191,14.755335600812544
2,14, 1,14, 0,13, 0.00,60.00,Monday
7,10.0
191,15.079501345398184
2,14, 1,14, 0,14, 0.00,60.00,Monday
7,10.583333333333334
191,15.458661297843549
2,14, 1,14, 0,15, 0.00,60.00,Monday
7,12.166666666666666
191,15.946466202228015
2,14, 1,14, 0,16, 0.00,60.00,Monday
7,12.416666666666666
191,16.3840706828027
2,14, 1,14, 0,17, 0.00,60.00,Monday
7,10.25
191,16.686991673753679
2,14, 1,14, 0,18, 0.00,60.00,Monday
7,6.083333333333333
191,16.50468158896178
2,14, 1,14, 0,19, 0.00,60.00,Monday
7,6.333333333333333
191,16.22303979051482
2,14, 1,14, 0,20, 0.00,60.00,Monday
7,7.416666666666667
191,16.291211161957354
2,14, 1,14, 0,21, 0.00,60.00,Monday
7,6.416666666666667
191,15.954904825560645
2,14, 1,14, 0,22, 0.00,60.00,Monday
7,4.25
191,15.727252681844178
2,14, 1,14, 0,23, 0.00,60.00,Monday
7,6.5
191,14.57354638819929
2,14, 1,14, 0,24, 0.00,60.00,Monday
7,8.299999999999999
191,14.359850246283692
2,15, 1,15, 0, 1, 0.00,60.00,Tuesday
7,7.333333333333333
191,14.063406188979437
2,15, 1,15, 0, 2, 0.00,60.00,Tuesday
7,6.416666666666667
191,13.817176178321434
2,15, 1,15, 0, 3, 0.00,60.00,Tuesday
7,7.166666666666667
191,13.738459138114257
2,15, 1,15, 0, 4, 0.00,60.00,Tuesday
7,7.416666666666667
191,13.75942551706882
2,15, 1,15, 0, 5, 0.00,60.00,Tuesday
7,6.416666666666667
191,13.587442457195755
2,15, 1,15, 0, 6, 0.00,60.00,Tuesday
7,3.0833333333333337
191,13.269313444448523
2,15, 1,15, 0, 7, 0.00,60.00,Tuesday
7,1.5833333333333333
191,13.685217637928048
2,15, 1,15, 0, 8, 0.00,60.00,Tuesday
7,1.4166666666666668
191,14.343052228485002
2,15, 1,15, 0, 9, 0.00,60.00,Tuesday
7,4.5
191,15.637546740927098
2,15, 1,15, 0,10, 0.00,60.00,Tuesday
7,8.166666666666666
191,16.404420155963054
2,15, 1,15, 0,11, 0.00,60.00,Tuesday
7,11.333333333333334
191,16.81278099413522
2,15, 1,15, 0,12, 0.00,60.00,Tuesday
7,14.166666666666666
191,17.19741316730904
2,15, 1,15, 0,13, 0.00,60.00,Tuesday
7,13.833333333333334
191,17.56512447203544
2,15, 1,15, 0,14, 0.00,60.00,Tuesday
7,12.416666666666666
191,17.93923940063607
2,15, 1,15, 0,15, 0.00,60.00,Tuesday
7,11.416666666666666
191,18.336005960822985
2,15, 1,15, 0,16, 0.00,60.00,Tuesday
7,11.583333333333334
191,18.689148779570315
2,15, 1,15, 0,17, 0.00,60.00,Tuesday
7,10.25
191,18.936176297612623
2,15, 1,15, 0,18, 0.00,60.00,Tuesday
7,8.416666666666666
191,18.71229827571192
2,15, 1,15, 0,19, 0.00,60.00,Tuesday
7,8.0
191,18.321557999428675
2,15, 1,15, 0,20, 0.00,60.00,Tuesday
7,6.833333333333333
191,18.14589484389194
2,15, 1,15, 0,21, 0.00,60.00,Tuesday
7,6.583333333333333
191,17.608256044955579
2,15, 1,15, 0,22, 0.00,60.00,Tuesday
7,4.666666666666667
191,17.2522444895152
2,15, 1,15, 0,23, 0.00,60.00,Tuesday
7,2.4166666666666667
191,15.630492433327186
2,15, 1,15, 0,24, 0.00,60.00,Tuesday
7,3.75
191,14.779156804903375
2,16, 1,16, 0, 1, 0.00,60.00,Wednesday
7,2.6666666666666667
191,14.42184833440279
2,16, 1,16, 0, 2, 0.00,60.00,Wednesday
7,1.0
191,13.89252662900405
2,16, 1,16, 0, 3, 0.00,60.00,Wednesday
7,-0.75
191,13.476754339396395
2,16, 1,16, 0, 4, 0.00,60.00,Wednesday
7,-2.5833333333333337
191,12.989385303347959
2,16, 1,16, 0, 5, 0.00,60.00,Wednesday
7,-1.8333333333333333
191,12.756997730726108
2,16, 1,16, 0, 6, 0.00,60.00,Wednesday
7,-0.4166666666666667
191,12.803687322696553
2,16, 1,16, 0, 7, 0.00,60.00,Wednesday
7,-0.5833333333333334
191,13.756222787233071
2,16, 1,16, 0, 8, 0.00,60.00,Wednesday
7,-1.0
191,14.315511509577759
2,16, 1,16, 0, 9, 0.00,60.00,Wednesday
7,1.9166666666666668
191,15.60303347022858
2,16, 1,16, 0,10, 0.00,60.00,Wednesday
7,5.75
191,16.310607230773394
2,16, 1,16, 0,11, 0.00,60.00,Wednesday
7,8.166666666666666
191,16.750021106571198
2,16, 1,16, 0,12, 0.00,60.00,Wednesday
7,9.583333333333334
191,17.03308357276227
2,16, 1,16, 0,13, 0.00,60.00,Wednesday
7,8.25
191,17.269905501421566
2,16, 1,16, 0,14, 0.00,60.00,Wednesday
7,9.333333333333334
191,17.73843428551285
2,16, 1,16, 0,15, 0.00,60.00,Wednesday
7,12.166666666666666
191,18.293029172203324
2,16, 1,16, 0,16, 0.00,60.00,Wednesday
7,11.833333333333334
191,18.665930695757635
2,16, 1,16, 0,17, 0.00,60.00,Wednesday
7,8.666666666666666
191,18.859737973888554
2,16, 1,16, 0,18, 0.00,60.00,Wednesday
7,7.0
191,18.686211954849467
2,16, 1,16, 0,19, 0.00,60.00,Wednesday
7,7.0
191,18.361364885728479
2,16, 1,16, 0,20, 0.00,60.00,Wednesday
7,5.25
191,18.203040935624668
2,16, 1,16, 0,21, 0.00,60.00,Wednesday
7,4.0
191,17.62517290810406
2,16, 1,16, 0,22, 0.00,60.00,Wednesday
7,-0.08333333333333326
191,17.154374878402384
2,16, 1,16, 0,23, 0.00,60.00,Wednesday
7,-1.25
191,15.229966651667283
2,16, 1,16, 0,24, 0.00,60.00,Wednesday
7,3.5
191,14.629716916021942