Program Version,EnergyPlus, Version 9.4.0-998c4b761e, YMD=2020.12.28 12:01
1,5,Environment Title[],Latitude[deg],Longitude[deg],Time Zone[],Elevation[m]
2,8,Day of Simulation[],Month[],Day of Month[],DST Indicator[1=yes 0=no],Hour[],StartMinute[],EndMinute[],DayType
3,5,Cumulative Day of Simulation[],Month[],Day of Month[],DST Indicator[1=yes 0=no],DayType  ! When Daily Report Variables Requested
4,2,Cumulative Days of Simulation[],Month[]  ! When Monthly Report Variables Requested
5,1,Cumulative Days of Simulation[] ! When Run Period Report Variables Requested
6,1,Calendar Year of Simulation[] ! When Annual Report Variables Requested
7,1,Environment,Site Outdoor Air Drybulb Temperature [C] !TimeStep
8,1,ZONE ONE,Zone Windows Total Transmitted Solar Radiation Rate [W] !TimeStep
9,1,ZN001:WALL001,Surface Outside Face Sunlit Fraction [] !TimeStep
10,1,ZN001:WALL001,Surface Outside Face Incident Solar Radiation Rate per Area [W/m2] !TimeStep
11,1,ZN001:WALL001:WIN001,Surface Outside Face Sunlit Fraction [] !TimeStep
12,1,ZN001:WALL001:WIN001,Surface Outside Face Incident Solar Radiation Rate per Area [W/m2] !TimeStep
13,1,ZN001:WALL001:WIN001,Surface Window Transmitted Solar Radiation Rate [W] !TimeStep
14,1,ZN001:WALL001,Surface Inside Face Temperature [C] !TimeStep
15,1,ZN001:WALL001,Surface Outside Face Temperature [C] !TimeStep
16,1,ZN001:WALL001:WIN001,Surface Inside Face Temperature [C] !TimeStep
17,1,ZN001:WALL001:WIN001,Surface Outside Face Temperature [C] !TimeStep
18,1,ZONE ONE,Zone Mean Air Temperature [C] !TimeStep
End of Data Dictionary
1,DENVER STAPLETON INTL ARPT ANN HTG 99% CONDNS DB,  39.74,-105.18,  -7.00,1829.00
2,1,12,21, 0, 1, 0.00,15.00,WinterDesignDay
7,-16.0
8,0.0
9,0.0
10,0.0
11,0.0
12,0.0
13,0.0
14,-19.06639009231784
15,-18.25075344685377
16,-18.939932990058254
17,-18.78155214463186
18,-19.14624463316933
2,1,12,21, 0, 1,15.00,30.00,WinterDesignDay
7,-16.0
8,0.0
9,0.0
10,0.0
11,0.0
12,0.0
13,0.0
14,-19.06640629647051
15,-18.250754163703648
16,-18.93994322213794
17,-18.78155632666659
18,-19.146261664079885
2,1,12,21, 0, 1,30.00,45.00,WinterDesignDay
7,-16.0
8,0.0
9,0.0
10,0.0
11,0.0
12,0.0
13,0.0
14,-19.066422431337167
15,-18.25075487748842
16,-18.939953410477928
17,-18.781560490823126
18,-19.146278622214603
2,1,12,21, 0, 1,45.00,60.00,WinterDesignDay
7,-16.0
8,0.0
9,0.0
10,0.0
11,0.0
12,0.0
13,0.0
14,-19.066438497213946
15,-18.250755588221208
16,-18.939963555259739
17,-18.78156463717471
18,-19.1462955078841
2,1,12,21, 0, 2, 0.00,15.00,WinterDesignDay
7,-16.0
8,0.0
9,0.0
10,0.0
11,0.0
12,0.0
13,0.0
14,-19.066454494395669
15,-18.25075629591504
16,-18.939973656670305
17,-18.781568765798768
18,-19.146312321397667
2,1,12,21, 0, 2,15.00,30.00,WinterDesignDay
7,-16.0
8,0.0
9,0.0
10,0.0
11,0.0
12,0.0
13,0.0
14,-19.066470423175898
15,-18.250757000582906
16,-18.93998371490261
17,-18.78157287677743
18,-19.14632906306327
2,1,12,21, 0, 2,30.00,45.00,WinterDesignDay
7,-16.0
8,0.0
9,0.0
10,0.0
11,0.0
12,0.0
13,0.0
14,-19.06648628384697
15,-18.25075770223774
16,-18.939993730132956
17,-18.781576970177868
18,-19.146345733187578
2,1,12,21, 0, 2,45.00,60.00,WinterDesignDay
7,-16.0
8,0.0
9,0.0
10,0.0
11,0.0
12,0.0
13,0.0
14,-19.066502076699999
15,-18.25075840089242
16,-18.940003702547445
17,-18.7815810460786
18,-19.146362332075954
2,1,12,21, 0, 3, 0.00,15.00,WinterDesignDay
7,-16.0
8,0.0
9,0.0
10,0.0
11,0.0
12,0.0
13,0.0
14,-19.06651780202482
15,-18.250759096559773
16,-18.940013632328204
17,-18.781585104554439
18,-19.14637886003244
2,1,12,21, 0, 3,15.00,30.00,WinterDesignDay
7,-16.0
8,0.0
9,0.0
10,0.0
11,0.0
12,0.0
13,0.0
14,-19.066533460110028
15,-18.25075978925256
16,-18.940023519661169
17,-18.781589145679108
18,-19.146395317359806
2,1,12,21, 0, 3,30.00,45.00,WinterDesignDay
7,-16.0
8,0.0
9,0.0
10,0.0
11,0.0
12,0.0
13,0.0
14,-19.06654905124298
15,-18.250760478983485
16,-18.94003336472784
17,-18.781593169530994
18,-19.146411704359548
2,1,12,21, 0, 3,45.00,60.00,WinterDesignDay
7,-16.0
8,0.0
9,0.0
10,0.0
11,0.0
12,0.0
13,0.0
14,-19.06656457570985
15,-18.250761165765224
16,-18.940043167699629
17,-18.781597176175184
18,-19.146428021331848
2,1,12,21, 0, 4, 0.00,15.00,WinterDesignDay
7,-16.0
8,0.0
9,0.0
10,0.0
11,0.0
12,0.0
13,0.0
14,-19.066580033795554
15,-18.25076184961037
16,-18.94005292876639
17,-18.781601165693617
18,-19.146444268575629
2,1,12,21, 0, 4,15.00,30.00,WinterDesignDay
7,-16.0
8,0.0
9,0.0
10,0.0
11,0.0
12,0.0
13,0.0
14,-19.066595425783807
15,-18.250762530531483
16,-18.940062648100708
17,-18.78160513815223
18,-19.146460446388514
2,1,12,21, 0, 4,30.00,45.00,WinterDesignDay
7,-16.0
8,0.0
9,0.0
10,0.0
11,0.0
12,0.0
13,0.0
14,-19.066610751957098
15,-18.250763208541057
16,-18.940072325885354
17,-18.781609093630097
18,-19.14647655506687
2,1,12,21, 0, 4,45.00,60.00,WinterDesignDay
7,-16.0
8,0.0
9,0.0
10,0.0
11,0.0
12,0.0
13,0.0
14,-19.066626012596708
15,-18.250763883651524
16,-18.940081962299617
17,-18.78161303219855
18,-19.14649259490582
2,1,12,21, 0, 5, 0.00,15.00,WinterDesignDay
7,-16.0
8,0.0
9,0.0
10,0.0
11,0.0
12,0.0
13,0.0
14,-19.066641207982717
15,-18.25076455587527
16,-18.94009155751229
17,-18.78161695392771
18,-19.146508566199214
2,1,12,21, 0, 5,15.00,30.00,WinterDesignDay
7,-16.0
8,0.0
9,0.0
10,0.0
11,0.0
12,0.0
13,0.0
14,-19.066656338394055
15,-18.250765225224673
16,-18.940101111703485
17,-18.78162085888863
18,-19.146524469239649
2,1,12,21, 0, 5,30.00,45.00,WinterDesignDay
7,-16.0
8,0.0
9,0.0
10,0.0
11,0.0
12,0.0
13,0.0
14,-19.066671404108367
15,-18.250765891711965
16,-18.940110625048989
17,-18.78162474715458
18,-19.146540304318476
2,1,12,21, 0, 5,45.00,60.00,WinterDesignDay
7,-16.0
8,0.0
9,0.0
10,0.0
11,0.0
12,0.0
13,0.0
14,-19.066686405402213
15,-18.250766555349416
16,-18.940120097725925
17,-18.781628618799773
18,-19.14655607172583
2,1,12,21, 0, 6, 0.00,15.00,WinterDesignDay
7,-16.0
8,0.0
9,0.0
10,0.0
11,0.0
12,0.0
13,0.0
14,-19.06670134255092
15,-18.25076721614919
16,-18.940129529906444
17,-18.781632473892758
18,-19.146571771750606
2,1,12,21, 0, 6,15.00,30.00,WinterDesignDay
7,-16.0
8,0.0
9,0.0
10,0.0
11,0.0
12,0.0
13,0.0
14,-19.066716215828654
15,-18.250767874123427
16,-18.940138921757865
17,-18.78163631250203
18,-19.146587404680436
2,1,12,21, 0, 6,30.00,45.00,WinterDesignDay
7,-16.0
8,0.0
9,0.0
10,0.0
11,0.0
12,0.0
13,0.0
14,-19.066731025508383
15,-18.250768529284188
16,-18.940148273457625
17,-18.781640134700099
18,-19.14660297080173
2,1,12,21, 0, 6,45.00,60.00,WinterDesignDay
7,-16.0
8,0.0
9,0.0
10,0.0
11,0.0
12,0.0
13,0.0
14,-19.06674577186195
15,-18.25076918164351
16,-18.940157585180374
17,-18.78164394055821
18,-19.146618470399706
2,1,12,21, 0, 7, 0.00,15.00,WinterDesignDay
7,-16.0
8,0.0
9,0.0
10,0.0
11,0.0
12,0.0
13,0.0
14,-19.066760455160006
15,-18.250769831213355
16,-18.94016685709076
17,-18.781647730144074
18,-19.146633903758365
2,1,12,21, 0, 7,15.00,30.00,WinterDesignDay
7,-16.0
8,0.0
9,0.0
10,0.0
11,0.0
12,0.0
13,0.0
14,-19.066775075672067
15,-18.25077047800566
16,-18.940176089362468
17,-18.78165150352828
18,-19.146649271160486
2,1,12,21, 0, 7,30.00,45.00,WinterDesignDay
7,-16.0
8,0.0
9,0.0
10,0.0
11,0.0
12,0.0
13,0.0
14,-19.066789633666479
15,-18.250771122032285
16,-18.940185282159918
17,-18.78165526077811
18,-19.146664572887635
2,1,12,21, 0, 7,45.00,60.00,WinterDesignDay
7,-16.0
8,0.0
9,0.0
10,0.0
11,0.0
12,0.0
13,0.0
14,-19.06680412941047
15,-18.250771763305055
16,-18.940194435658129
17,-18.78165900196626
18,-19.146679809220193
2,1,12,21, 0, 8, 0.00,15.00,WinterDesignDay
7,-16.0
8,0.0
9,0.0
10,0.0
11,0.0
12,0.0
13,0.0
14,-19.066818563170096
15,-18.250772401835737
16,-18.940203550027037
17,-18.78166272716183
18,-19.146694980437358
2,1,12,21, 0, 8,15.00,30.00,WinterDesignDay
7,-16.0
8,0.0
9,1.0
10,0.0
11,1.0
12,0.0
13,0.0
14,-19.06683293521027
15,-18.250773037636049
16,-18.94021262542131
17,-18.78166643642578
18,-19.1467100868171
2,1,12,21, 0, 8,30.00,45.00,WinterDesignDay
7,-16.0
8,0.0
9,1.0
10,0.0
11,1.0
12,0.0
13,0.0
14,-19.066847245794845
15,-18.250773670717675
16,-18.94022166201671
17,-18.7816701298309
18,-19.146725128636235
2,1,12,21, 0, 8,45.00,60.00,WinterDesignDay
7,-16.0
8,0.0
9,1.0
10,0.0
11,1.0
12,0.0
13,0.0
14,-19.06686149518646
15,-18.25077430109222
16,-18.94023065998266
17,-18.781673807448727
18,-19.146740106170396
2,1,12,21, 0, 9, 0.00,15.00,WinterDesignDay
7,-16.0
8,0.0
9,1.0
10,0.0
11,1.0
12,0.0
13,0.0
14,-19.06687568364666
15,-18.250774928771265
16,-18.94023961947451
17,-18.78167746934082
18,-19.146755019694035
2,1,12,21, 0, 9,15.00,30.00,WinterDesignDay
7,-16.0
8,0.0
9,1.0
10,0.0
11,1.0
12,0.0
13,0.0
14,-19.0668898114359
15,-18.250775553766318
16,-18.94024854066663
17,-18.78168111557963
18,-19.146769869480456
2,1,12,21, 0, 9,30.00,45.00,WinterDesignDay
7,-16.0
8,0.0
9,1.0
10,0.0
11,1.0
12,0.0
13,0.0
14,-19.0669038788135
15,-18.250776176088864
16,-18.940257423713207
17,-18.781684746226348
18,-19.146784655801786
2,1,12,21, 0, 9,45.00,60.00,WinterDesignDay
7,-16.0
8,0.0
9,1.0
10,0.0
11,1.0
12,0.0
13,0.0
14,-19.06691788603769
15,-18.25077679575033
16,-18.940266268781899
17,-18.781688361351145
18,-19.146799378928983
2,1,12,21, 0,10, 0.00,15.00,WinterDesignDay
7,-16.0
8,0.0
9,1.0
10,0.0
11,1.0
12,0.0
13,0.0
14,-19.066931833365556
15,-18.250777412762067
16,-18.940275076038064
17,-18.781691961021836
18,-19.146814039131848
2,1,12,21, 0,10,15.00,30.00,WinterDesignDay
7,-16.0
8,0.0
9,1.0
10,0.0
11,1.0
12,0.0
13,0.0
14,-19.066945721053153
15,-18.25077802713543
16,-18.940283845634043
17,-18.781695545297766
18,-19.146828636679044
2,1,12,21, 0,10,30.00,45.00,WinterDesignDay
7,-16.0
8,0.0
9,1.0
10,0.0
11,1.0
12,0.0
13,0.0
14,-19.066959549355379
15,-18.25077863888167
16,-18.940292577738548
17,-18.78169911424942
18,-19.14684317183809
2,1,12,21, 0,10,45.00,60.00,WinterDesignDay
7,-16.0
8,0.0
9,1.0
10,0.0
11,1.0
12,0.0
13,0.0
14,-19.06697331852607
15,-18.250779248012035
16,-18.940301272515798
17,-18.781702667947685
18,-19.146857644875369
2,1,12,21, 0,11, 0.00,15.00,WinterDesignDay
7,-16.0
8,0.0
9,1.0
10,0.0
11,1.0
12,0.0
13,0.0
14,-19.066987028817974
15,-18.250779854537695
16,-18.94030993011154
17,-18.781706206446076
18,-19.146872056056116
2,1,12,21, 0,11,15.00,30.00,WinterDesignDay
7,-16.0
8,0.0
9,1.0
10,0.0
11,1.0
12,0.0
13,0.0
14,-19.06700068048278
15,-18.250780458469789
16,-18.940318550695169
17,-18.781709729818318
18,-19.146886405644449
2,1,12,21, 0,11,30.00,45.00,WinterDesignDay
7,-16.0
8,0.0
9,1.0
10,0.0
11,1.0
12,0.0
13,0.0
14,-19.06701427377107
15,-18.250781059819397
16,-18.940327134420217
17,-18.781713238124924
18,-19.146900693903338
2,1,12,21, 0,11,45.00,60.00,WinterDesignDay
7,-16.0
8,0.0
9,1.0
10,0.0
11,1.0
12,0.0
13,0.0
14,-19.067027808932364
15,-18.25078165859756
16,-18.940335681451076
17,-18.78171673143359
18,-19.14691492109467
2,1,12,21, 0,12, 0.00,15.00,WinterDesignDay
7,-16.0
8,0.0
9,1.0
10,0.0
11,1.0
12,0.0
13,0.0
14,-19.067041286215138
15,-18.250782254815275
16,-18.94034419193332
17,-18.781720209803724
18,-19.14692908747918
2,1,12,21, 0,12,15.00,30.00,WinterDesignDay
7,-16.0
8,0.0
9,1.0
10,0.0
11,1.0
12,0.0
13,0.0
14,-19.067054705866786
15,-18.250782848483479
16,-18.940352666031829
17,-18.7817236733041
18,-19.146943193316504
2,1,12,21, 0,12,30.00,45.00,WinterDesignDay
7,-16.0
8,0.0
9,1.0
10,0.0
11,1.0
12,0.0
13,0.0
14,-19.06706806813364
15,-18.250783439613075
16,-18.940361103901865
17,-18.78172712199523
18,-19.14695723886518
2,1,12,21, 0,12,45.00,60.00,WinterDesignDay
7,-16.0
8,0.0
9,1.0
10,0.0
11,1.0
12,0.0
13,0.0
14,-19.067081373260998
15,-18.250784028214903
16,-18.940369505691679
17,-18.781730555941125
18,-19.14697122438265
2,1,12,21, 0,13, 0.00,15.00,WinterDesignDay
7,-16.0
8,0.0
9,1.0
10,0.0
11,1.0
12,0.0
13,0.0
14,-19.067094621493106
15,-18.250784614299787
16,-18.940377871559293
17,-18.781733975204078
18,-19.146985150125233
2,1,12,21, 0,13,15.00,30.00,WinterDesignDay
7,-16.0
8,0.0
9,1.0
10,0.0
11,1.0
12,0.0
13,0.0
14,-19.067107813073166
15,-18.25078519787847
16,-18.940386201661285
17,-18.78173737984781
18,-19.146999016348166
2,1,12,21, 0,13,30.00,45.00,WinterDesignDay
7,-16.0
8,0.0
9,1.0
10,0.0
11,1.0
12,0.0
13,0.0
14,-19.067120948243326
15,-18.25078577896167
16,-18.940394496148487
17,-18.781740769936904
18,-19.14701282330562
2,1,12,21, 0,13,45.00,60.00,WinterDesignDay
7,-16.0
8,0.0
9,1.0
10,0.0
11,1.0
12,0.0
13,0.0
14,-19.06713402724473
15,-18.250786357560068
16,-18.940402755170227
17,-18.781744145528707
18,-19.14702657125066
2,1,12,21, 0,14, 0.00,15.00,WinterDesignDay
7,-16.0
8,0.0
9,1.0
10,0.0
11,1.0
12,0.0
13,0.0
14,-19.06714705031747
15,-18.250786933684258
16,-18.940410978885269
17,-18.781747506690779
18,-19.14704026043529
2,1,12,21, 0,14,15.00,30.00,WinterDesignDay
7,-16.0
8,0.0
9,1.0
10,0.0
11,1.0
12,0.0
13,0.0
14,-19.0671600177006
15,-18.250787507344826
16,-18.940419167430436
17,-18.781750853477378
18,-19.14705389111042
2,1,12,21, 0,14,30.00,45.00,WinterDesignDay
7,-16.0
8,0.0
9,1.0
10,0.0
11,1.0
12,0.0
13,0.0
14,-19.067172929632215
15,-18.250788078552316
16,-18.940427320972277
17,-18.781754185957256
18,-19.147067463525898
2,1,12,21, 0,14,45.00,60.00,WinterDesignDay
7,-16.0
8,0.0
9,1.0
10,0.0
11,1.0
12,0.0
13,0.0
14,-19.067185786349279
15,-18.250788647317188
16,-18.940435439653358
17,-18.781757504189728
18,-19.14708097793051
2,1,12,21, 0,15, 0.00,15.00,WinterDesignDay
7,-16.0
8,0.0
9,1.0
10,0.0
11,1.0
12,0.0
13,0.0
14,-19.06719858808789
15,-18.250789213649918
16,-18.94044352361442
17,-18.781760808230929
18,-19.147094434571977
2,1,12,21, 0,15,15.00,30.00,WinterDesignDay
7,-16.0
8,0.0
9,1.0
10,0.0
11,1.0
12,0.0
13,0.0
14,-19.067211335083035
15,-18.25078977756087
16,-18.94045157301906
17,-18.78176409814779
18,-19.147107833696965
2,1,12,21, 0,15,30.00,45.00,WinterDesignDay
7,-16.0
8,0.0
9,1.0
10,0.0
11,1.0
12,0.0
13,0.0
14,-19.067224027568679
15,-18.250790339060413
16,-18.940459588002683
17,-18.781767373994656
18,-19.14712117555108
2,1,12,21, 0,15,45.00,60.00,WinterDesignDay
7,-16.0
8,0.0
9,1.0
10,0.0
11,1.0
12,0.0
13,0.0
14,-19.06723666577788
15,-18.25079089815885
16,-18.94046756872035
17,-18.781770635837519
18,-19.147134460378905
2,1,12,21, 0,16, 0.00,15.00,WinterDesignDay
7,-16.0
8,0.0
9,1.0
10,0.0
11,1.0
12,0.0
13,0.0
14,-19.06724924994264
15,-18.250791454866449
16,-18.940475515314178
17,-18.781773883734105
18,-19.14714768842396
2,1,12,21, 0,16,15.00,30.00,WinterDesignDay
7,-16.0
8,0.0
9,1.0
10,0.0
11,1.0
12,0.0
13,0.0
14,-19.06726178029396
15,-18.250792009193427
16,-18.940483427929679
17,-18.781777117742537
18,-19.147160859928733
2,1,12,21, 0,16,30.00,45.00,WinterDesignDay
7,-16.0
8,0.0
9,1.0
10,0.0
11,1.0
12,0.0
13,0.0
14,-19.067274257061908
15,-18.250792561149955
16,-18.940491306717776
17,-18.781780337923409
18,-19.14717397513468
2,1,12,21, 0,16,45.00,60.00,WinterDesignDay
7,-16.0
8,0.0
9,1.0
10,0.0
11,1.0
12,0.0
13,0.0
14,-19.067286680475516
15,-18.250793110746174
16,-18.940499151819723
17,-18.781783544336919
18,-19.147187034282255
2,1,12,21, 0,17, 0.00,15.00,WinterDesignDay
7,-16.0
8,0.0
9,1.0
10,0.0
11,1.0
12,0.0
13,0.0
14,-19.06729905076289
15,-18.250793657992177
16,-18.94050696337257
17,-18.781786737038659
18,-19.14720003761084
2,1,12,21, 0,17,15.00,30.00,WinterDesignDay
7,-16.0
8,0.0
9,1.0
10,0.0
11,1.0
12,0.0
13,0.0
14,-19.06731136815112
15,-18.250794202897997
16,-18.94051474152974
17,-18.781789916090078
18,-19.147212985358814
2,1,12,21, 0,17,30.00,45.00,WinterDesignDay
7,-16.0
8,0.0
9,0.0
10,0.0
11,0.0
12,0.0
13,0.0
14,-19.067323632866314
15,-18.25079474547364
16,-18.940522486431577
17,-18.781793081549098
18,-19.14722587776355
2,1,12,21, 0,17,45.00,60.00,WinterDesignDay
7,-16.0
8,0.0
9,0.0
10,0.0
11,0.0
12,0.0
13,0.0
14,-19.067335845133657
15,-18.250795285729088
16,-18.940530198213425
17,-18.781796233471256
18,-19.147238715061407
2,1,12,21, 0,18, 0.00,15.00,WinterDesignDay
7,-16.0
8,0.0
9,0.0
10,0.0
11,0.0
12,0.0
13,0.0
14,-19.067348005177374
15,-18.250795823674243
16,-18.940537877031376
17,-18.78179937192175
18,-19.147251497487735
2,1,12,21, 0,18,15.00,30.00,WinterDesignDay
7,-16.0
8,0.0
9,0.0
10,0.0
11,0.0
12,0.0
13,0.0
14,-19.067360113220667
15,-18.25079635931896
16,-18.940545523007246
17,-18.781802496946285
18,-19.14726422527687
2,1,12,21, 0,18,30.00,45.00,WinterDesignDay
7,-16.0
8,0.0
9,0.0
10,0.0
11,0.0
12,0.0
13,0.0
14,-19.06737216948585
15,-18.250796892673106
16,-18.940553136293205
17,-18.781805608611877
18,-19.14727689866215
2,1,12,21, 0,18,45.00,60.00,WinterDesignDay
7,-16.0
8,0.0
9,0.0
10,0.0
11,0.0
12,0.0
13,0.0
14,-19.06738417419428
15,-18.25079742374647
16,-18.94056071702815
17,-18.78180870697281
18,-19.147289517875909
2,1,12,21, 0,19, 0.00,15.00,WinterDesignDay
7,-16.0
8,0.0
9,0.0
10,0.0
11,0.0
12,0.0
13,0.0
14,-19.067396127566324
15,-18.250797952548778
16,-18.94056826535322
17,-18.781811792086957
18,-19.14730208314953
2,1,12,21, 0,19,15.00,30.00,WinterDesignDay
7,-16.0
8,0.0
9,0.0
10,0.0
11,0.0
12,0.0
13,0.0
14,-19.067408029821455
15,-18.250798479089754
16,-18.940575781400299
17,-18.78181486400854
18,-19.147314594713394
2,1,12,21, 0,19,30.00,45.00,WinterDesignDay
7,-16.0
8,0.0
9,0.0
10,0.0
11,0.0
12,0.0
13,0.0
14,-19.06741988117822
15,-18.25079900337908
16,-18.940583265310523
17,-18.781817922795086
18,-19.14732705279688
2,1,12,21, 0,19,45.00,60.00,WinterDesignDay
7,-16.0
8,0.0
9,0.0
10,0.0
11,0.0
12,0.0
13,0.0
14,-19.06743168185417
15,-18.25079952542635
16,-18.940590717218897
17,-18.781820968499745
18,-19.147339457628389
2,1,12,21, 0,20, 0.00,15.00,WinterDesignDay
7,-16.0
8,0.0
9,0.0
10,0.0
11,0.0
12,0.0
13,0.0
14,-19.067443432065955
15,-18.250800045241165
16,-18.940598137268638
17,-18.78182400118402
18,-19.147351809435368
2,1,12,21, 0,20,15.00,30.00,WinterDesignDay
7,-16.0
8,0.0
9,0.0
10,0.0
11,0.0
12,0.0
13,0.0
14,-19.06745513202932
15,-18.250800562833068
16,-18.940605525590287
17,-18.781827020902428
18,-19.147364108444294
2,1,12,21, 0,20,30.00,45.00,WinterDesignDay
7,-16.0
8,0.0
9,0.0
10,0.0
11,0.0
12,0.0
13,0.0
14,-19.06746678195905
15,-18.250801078211557
16,-18.940612882320069
17,-18.781830027705867
18,-19.147376354880654
2,1,12,21, 0,20,45.00,60.00,WinterDesignDay
7,-16.0
8,0.0
9,0.0
10,0.0
11,0.0
12,0.0
13,0.0
14,-19.067478382069099
15,-18.250801591386116
16,-18.940620207592873
17,-18.781833021652859
18,-19.147388548968985
2,1,12,21, 0,21, 0.00,15.00,WinterDesignDay
7,-16.0
8,0.0
9,0.0
10,0.0
11,0.0
12,0.0
13,0.0
14,-19.067489932572355
15,-18.250802102366117
16,-18.940627501549785
17,-18.78183600280056
18,-19.147400690932878
2,1,12,21, 0,21,15.00,30.00,WinterDesignDay
7,-16.0
8,0.0
9,0.0
10,0.0
11,0.0
12,0.0
13,0.0
14,-19.06750143368096
15,-18.250802611160997
16,-18.94063476431387
17,-18.78183897119837
18,-19.14741278099498
2,1,12,21, 0,21,30.00,45.00,WinterDesignDay
7,-16.0
8,0.0
9,0.0
10,0.0
11,0.0
12,0.0
13,0.0
14,-19.067512885606047
15,-18.25080311778007
16,-18.940641996024625
17,-18.781841926907135
18,-19.14742481937697
2,1,12,21, 0,21,45.00,60.00,WinterDesignDay
7,-16.0
8,0.0
9,0.0
10,0.0
11,0.0
12,0.0
13,0.0
14,-19.067524288557867
15,-18.250803622232636
16,-18.940649196815344
17,-18.781844869974834
18,-19.147436806299579
2,1,12,21, 0,22, 0.00,15.00,WinterDesignDay
7,-16.0
8,0.0
9,0.0
10,0.0
11,0.0
12,0.0
13,0.0
14,-19.067535642745776
15,-18.250804124527954
16,-18.940656366819839
17,-18.781847800461664
18,-19.147448741982609
2,1,12,21, 0,22,15.00,30.00,WinterDesignDay
7,-16.0
8,0.0
9,0.0
10,0.0
11,0.0
12,0.0
13,0.0
14,-19.067546948378284
15,-18.25080462467527
16,-18.940663506160065
17,-18.78185071841338
18,-19.147460626644916
2,1,12,21, 0,22,30.00,45.00,WinterDesignDay
7,-16.0
8,0.0
9,0.0
10,0.0
11,0.0
12,0.0
13,0.0
14,-19.067558205662946
15,-18.250805122683745
16,-18.940670614972903
17,-18.781853623888766
18,-19.147472460504415
2,1,12,21, 0,22,45.00,60.00,WinterDesignDay
7,-16.0
8,0.0
9,0.0
10,0.0
11,0.0
12,0.0
13,0.0
14,-19.067569414806426
15,-18.250805618562518
16,-18.94067769339273
17,-18.781856516941106
18,-19.147484243778096
2,1,12,21, 0,23, 0.00,15.00,WinterDesignDay
7,-16.0
8,0.0
9,0.0
10,0.0
11,0.0
12,0.0
13,0.0
14,-19.067580576014544
15,-18.25080611232071
16,-18.940684741547984
17,-18.781859397623835
18,-19.14749597668204
2,1,12,21, 0,23,15.00,30.00,WinterDesignDay
7,-16.0
8,0.0
9,0.0
10,0.0
11,0.0
12,0.0
13,0.0
14,-19.06759168949224
15,-18.250806603967388
16,-18.940691759562357
17,-18.78186226598757
18,-19.147507659431409
2,1,12,21, 0,23,30.00,45.00,WinterDesignDay
7,-16.0
8,0.0
9,0.0
10,0.0
11,0.0
12,0.0
13,0.0
14,-19.067602755443553
15,-18.250807093511555
16,-18.94069874757031
17,-18.78186512208876
18,-19.14751929224042
2,1,12,21, 0,23,45.00,60.00,WinterDesignDay
7,-16.0
8,0.0
9,0.0
10,0.0
11,0.0
12,0.0
13,0.0
14,-19.06761377407168
15,-18.25080758096223
16,-18.940705705699174
17,-18.78186796597558
18,-19.147530875322404
2,1,12,21, 0,24, 0.00,15.00,WinterDesignDay
7,-16.0
8,0.0
9,0.0
10,0.0
11,0.0
12,0.0
13,0.0
14,-19.06762474557892
15,-18.250808066328337
16,-18.94071263407392
17,-18.781870797702369
18,-19.147542408889753
2,1,12,21, 0,24,15.00,30.00,WinterDesignDay
7,-16.0
8,0.0
9,0.0
10,0.0
11,0.0
12,0.0
13,0.0
14,-19.067635670166728
15,-18.250808549618804
16,-18.940719532823779
17,-18.78187361732006
18,-19.147553893153977
2,1,12,21, 0,24,30.00,45.00,WinterDesignDay
7,-16.0
8,0.0
9,0.0
10,0.0
11,0.0
12,0.0
13,0.0
14,-19.067646548035666
15,-18.250809030842495
16,-18.940726402073979
17,-18.781876424880296
18,-19.14756532832567
2,1,12,21, 0,24,45.00,60.00,WinterDesignDay
7,-16.0
8,0.0
9,0.0
10,0.0
11,0.0
12,0.0
13,0.0
14,-19.06765737938549
15,-18.250809510008254
16,-18.940733241956509
17,-18.78187922043861
18,-19.147576714614546
1,DENVER STAPLETON INTL ARPT ANN CLG 1% CONDNS DB=>MWB,  39.74,-105.18,  -7.00,1829.00
2,1, 7,21, 0, 1, 0.00,15.00,SummerDesignDay
7,19.908
8,0.0
9,0.0
10,0.0
11,0.0
12,0.0
13,0.0
14,31.68755649663638
15,18.502473486109858
16,26.88538091276064
17,21.32016366852855
18,32.46364336392983
2,1, 7,21, 0, 1,15.00,30.00,SummerDesignDay
7,19.68
8,0.0
9,0.0
10,0.0
11,0.0
12,0.0
13,0.0
14,31.58317574728506
15,18.282402344991469
16,26.743142841069415
17,21.128462281793874
18,32.36584060411522
2,1, 7,21, 0, 1,30.00,45.00,SummerDesignDay
7,19.452
8,0.0
9,0.0
10,0.0
11,0.0
12,0.0
13,0.0
14,31.478526967795064
15,18.06234563880368
16,26.600615180460126
17,20.936667547630124
18,32.26795854606887
2,1, 7,21, 0, 1,45.00,60.00,SummerDesignDay
7,19.224000000000005
8,0.0
9,0.0
10,0.0
11,0.0
12,0.0
13,0.0
14,31.37345081107251
15,17.842270138649849
16,26.45788955192222
17,20.74477110779742
18,32.16966460133979
2,1, 7,21, 0, 2, 0.00,15.00,SummerDesignDay
7,19.072000000000004
8,0.0
9,0.0
10,0.0
11,0.0
12,0.0
13,0.0
14,31.27525462827208
15,17.694790826408754
16,26.341344874759103
17,20.606175996338096
18,32.07231425132395
2,1, 7,21, 0, 2,15.00,30.00,SummerDesignDay
7,18.92
8,0.0
9,0.0
10,0.0
11,0.0
12,0.0
13,0.0
14,31.176525527087269
15,17.547222638008269
16,26.22673555448233
17,20.47018068907039
18,31.97639561867955
2,1, 7,21, 0, 2,30.00,45.00,SummerDesignDay
7,18.768
8,0.0
9,0.0
10,0.0
11,0.0
12,0.0
13,0.0
14,31.078265419923409
15,17.399709021150817
16,26.11217946722138
17,20.334300051036509
18,31.88135249442507
2,1, 7,21, 0, 2,45.00,60.00,SummerDesignDay
7,18.616
8,0.0
9,0.0
10,0.0
11,0.0
12,0.0
13,0.0
14,30.980150096956498
15,17.252184973588247
16,25.997852114177478
17,20.198513684234628
18,31.786523975048906
2,1, 7,21, 0, 3, 0.00,15.00,SummerDesignDay
7,18.502000000000004
8,0.0
9,0.0
10,0.0
11,0.0
12,0.0
13,0.0
14,30.885652853434839
15,17.14097165276808
16,25.896786586377858
17,20.089461229424275
18,31.692314927170778
2,1, 7,21, 0, 3,15.00,30.00,SummerDesignDay
7,18.388
8,0.0
9,0.0
10,0.0
11,0.0
12,0.0
13,0.0
14,30.79096591775848
15,17.029696100104485
16,25.796770765913779
17,19.98174814563083
18,31.598883774187845
2,1, 7,21, 0, 3,30.00,45.00,SummerDesignDay
7,18.274000000000006
8,0.0
9,0.0
10,0.0
11,0.0
12,0.0
13,0.0
14,30.696564517218364
15,16.91844822056674
16,25.696823953890659
17,19.874111765772
18,31.505945586598356
2,1, 7,21, 0, 3,45.00,60.00,SummerDesignDay
7,18.160000000000005
8,0.0
9,0.0
10,0.0
11,0.0
12,0.0
13,0.0
14,30.602285964035706
15,16.80719597053881
16,25.597024058972694
17,19.766536938030869
18,31.413175677116557
2,1, 7,21, 0, 4, 0.00,15.00,SummerDesignDay
7,18.046000000000004
8,0.0
9,0.0
10,0.0
11,0.0
12,0.0
13,0.0
14,30.50800969042041
15,16.695938350340229
16,25.497272867055757
17,19.658980059527779
18,31.320391256814739
2,1, 7,21, 0, 4,15.00,30.00,SummerDesignDay
7,17.932000000000003
8,0.0
9,0.0
10,0.0
11,0.0
12,0.0
13,0.0
14,30.41366979137683
15,16.584675672165827
16,25.39750358237211
17,19.551413089287736
18,31.227532535850707
2,1, 7,21, 0, 4,30.00,45.00,SummerDesignDay
7,17.818000000000006
8,0.0
9,0.0
10,0.0
11,0.0
12,0.0
13,0.0
14,30.319247822576015
15,16.47340918114689
16,25.297686416947557
17,19.44382362509981
18,31.134592827733426
2,1, 7,21, 0, 4,45.00,60.00,SummerDesignDay
7,17.704
8,0.0
9,0.0
10,0.0
11,0.0
12,0.0
13,0.0
14,30.224743463447905
15,16.362139607632885
16,25.19781487046339
17,19.336208997191194
18,31.041574884778446
2,1, 7,21, 0, 5, 0.00,15.00,SummerDesignDay
7,17.628
8,0.0
9,0.0
10,0.0
11,0.0
12,0.0
13,0.0
14,30.13388768857589
15,16.28719921110482
16,25.111115508892796
17,19.25530022430837
18,30.94924963081253
2,1, 7,21, 0, 5,15.00,30.00,SummerDesignDay
7,17.552
8,0.0
9,0.0
10,0.0
11,0.0
12,0.0
13,0.0
14,30.042994423486428
15,16.212198325216634
16,25.025521797150078
17,19.175769277066367
18,30.857883433081143
2,1, 7,21, 0, 5,30.00,45.00,SummerDesignDay
7,17.476000000000004
8,0.0
9,0.0
10,0.0
11,0.0
12,0.0
13,0.0
14,29.95257281253675
15,16.137231733815886
16,24.940111654278213
17,19.09636620517415
18,30.767194218715919
2,1, 7,21, 0, 5,45.00,60.00,SummerDesignDay
7,17.400000000000003
8,0.005279794032939257
9,0.0
10,0.0008629357336446316
11,0.0
12,0.0008629357336446316
13,0.005279794032939257
14,29.862469029566605
15,16.062309138509354
16,24.854979185004824
17,19.017085293116055
18,30.676851218079585
2,1, 7,21, 0, 6, 0.00,15.00,SummerDesignDay
7,17.476000000000004
8,23.651687192306896
9,0.0
10,3.865659514726282
11,0.0
12,3.865659514726282
13,23.651687192306896
14,29.848172218579646
15,16.327859289212254
16,24.85487044700966
17,19.075709700811787
18,30.609732703463544
2,1, 7,21, 0, 6,15.00,30.00,SummerDesignDay
7,17.552
8,95.52028509586427
9,0.0
10,15.61194750834939
11,0.0
12,15.61194750834939
13,95.52028509586427
14,29.951567776598446
15,16.990266945501838
16,24.956790149717905
17,19.216776121911324
18,30.60796782536838
2,1, 7,21, 0, 6,30.00,45.00,SummerDesignDay
7,17.628
8,185.57966139197789
9,0.0
10,30.33135767299186
11,0.0
12,30.33135767299186
13,185.57966139197789
14,30.11115069658192
15,17.79656712145468
16,25.149198403723405
17,19.410118276579455
18,30.67190927038349
2,1, 7,21, 0, 6,45.00,60.00,SummerDesignDay
7,17.704
8,259.05131283974756
9,0.0
10,42.33965061938703
11,0.0
12,42.33965061938703
13,259.05131283974756
14,30.246602641902528
15,18.449717726180557
16,25.35222632787213
17,19.595854424166306
18,30.771435379542959
2,1, 7,21, 0, 7, 0.00,15.00,SummerDesignDay
7,17.970000000000004
8,322.79310782275658
9,0.0
10,52.75768440523668
11,0.0
12,52.75768440523668
13,322.79310782275658
14,30.406375681991866
15,19.226526278488238
16,25.6024121775539
17,19.90886045546449
18,30.880875191853588
2,1, 7,21, 0, 7,15.00,30.00,SummerDesignDay
7,18.236
8,378.1904792925955
9,0.0
10,61.811895818233228
11,0.0
12,61.811895818233228
13,378.1904792925955
14,30.553929627684526
15,19.932953257210778
16,25.845993884301039
17,20.207569624935105
18,30.986078612315237
2,1, 7,21, 0, 7,30.00,45.00,SummerDesignDay
7,18.502000000000004
8,427.15068196483449
9,0.0
10,69.81400880763674
11,0.0
12,69.81400880763674
13,427.15068196483449
14,30.686336429634474
15,20.58500046503657
16,26.07528896593135
17,20.495245779129847
18,31.084763790936777
2,1, 7,21, 0, 7,45.00,60.00,SummerDesignDay
7,18.768
8,470.7312959136184
9,0.0
10,76.93687550204858
11,0.0
12,76.93687550204858
13,470.7312959136184
14,30.808893472659944
15,21.19188235883852
16,26.28768127073181
17,20.76370165326057
18,31.1783287127604
2,1, 7,21, 0, 8, 0.00,15.00,SummerDesignDay
7,19.414
8,509.8633990513461
9,0.0
10,83.33267236827851
11,0.0
12,83.33267236827851
13,509.8633990513461
14,30.964008229594595
15,22.122050065338859
16,26.629656579347967
17,21.319789892864038
18,31.274220779100799
2,1, 7,21, 0, 8,15.00,30.00,SummerDesignDay
7,20.060000000000004
8,545.2266348428116
9,0.0
10,89.1124811319109
11,0.0
12,89.1124811319109
13,545.2266348428116
14,31.113136921263849
15,23.018006226950719
16,26.97197499243623
17,21.86484380135289
18,31.376276110686807
2,1, 7,21, 0, 8,30.00,45.00,SummerDesignDay
7,20.706000000000004
8,577.3141720136619
9,0.0
10,94.35690586829826
11,0.0
12,94.35690586829826
13,577.3141720136619
14,31.261030522545064
15,23.886201046931306
16,27.309510662799313
17,22.405044286850399
18,31.48365908651304
2,1, 7,21, 0, 8,45.00,60.00,SummerDesignDay
7,21.352000000000005
8,642.6613410377045
9,1.0
10,114.55036451451068
11,1.0
12,114.55036451451068
13,642.6613410377045
14,31.479646114031575
15,25.498553861480639
16,27.696152833905388
17,22.99293102858826
18,31.601460414178399
2,1, 7,21, 0, 9, 0.00,15.00,SummerDesignDay
7,22.074000000000006
8,700.4492387971422
9,1.0
10,148.400275742226
11,1.0
12,148.400275742226
13,700.4492387971422
14,31.76291632947383
15,27.850266700648839
16,28.208823786772656
17,23.756500618965846
18,31.741136063806914
2,1, 7,21, 0, 9,15.00,30.00,SummerDesignDay
7,22.796
8,771.1311608306031
9,1.0
10,181.6859332853047
11,1.0
12,181.6859332853047
13,771.1311608306031
14,32.06702115794849
15,30.153675213147275
16,28.795562208803234
17,24.596384133025994
18,31.899370847842634
2,1, 7,21, 0, 9,30.00,45.00,SummerDesignDay
7,23.518
8,857.8090502622636
9,1.0
10,214.03428501890327
11,1.0
12,214.03428501890327
13,857.8090502622636
14,32.3378527911635
15,32.36495698741649
16,29.42236751688438
17,25.46836269495185
18,32.070260334415397
2,1, 7,21, 0, 9,45.00,60.00,SummerDesignDay
7,24.240000000000003
8,959.3816659647179
9,1.0
10,245.12711444530152
11,1.0
12,245.12711444530152
13,959.3816659647179
14,32.617937986434167
15,34.511055850980039
16,30.060824797719194
17,26.33937497998147
18,32.24857071825293
2,1, 7,21, 0,10, 0.00,15.00,SummerDesignDay
7,24.886000000000004
8,1096.9714871944812
9,1.0
10,275.6123109852702
11,1.0